 Entering Gaussian System, Link 0=/software/kemi/g16/avx2/g16/g16
 Initial command:
 /software/kemi/g16/avx2/g16/l1.exe "/scratch/30655787/Gau-34430.inp" -scrdir="/scratch/30655787/"
 Entering Link 1 = /software/kemi/g16/avx2/g16/l1.exe PID=     34431.
  
 Copyright (c) 1988,1990,1992,1993,1995,1998,2003,2009,2016,
            Gaussian, Inc.  All Rights Reserved.
  
 This is part of the Gaussian(R) 16 program.  It is based on
 the Gaussian(R) 09 system (copyright 2009, Gaussian, Inc.),
 the Gaussian(R) 03 system (copyright 2003, Gaussian, Inc.),
 the Gaussian(R) 98 system (copyright 1998, Gaussian, Inc.),
 the Gaussian(R) 94 system (copyright 1995, Gaussian, Inc.),
 the Gaussian 92(TM) system (copyright 1992, Gaussian, Inc.),
 the Gaussian 90(TM) system (copyright 1990, Gaussian, Inc.),
 the Gaussian 88(TM) system (copyright 1988, Gaussian, Inc.),
 the Gaussian 86(TM) system (copyright 1986, Carnegie Mellon
 University), and the Gaussian 82(TM) system (copyright 1983,
 Carnegie Mellon University). Gaussian is a federally registered
 trademark of Gaussian, Inc.
  
 This software contains proprietary and confidential information,
 including trade secrets, belonging to Gaussian, Inc.
  
 This software is provided under written license and may be
 used, copied, transmitted, or stored only in accord with that
 written license.
  
 The following legend is applicable only to US Government
 contracts under FAR:
  
                    RESTRICTED RIGHTS LEGEND
  
 Use, reproduction and disclosure by the US Government is
 subject to restrictions as set forth in subparagraphs (a)
 and (c) of the Commercial Computer Software - Restricted
 Rights clause in FAR 52.227-19.
  
 Gaussian, Inc.
 340 Quinnipiac St., Bldg. 40, Wallingford CT 06492
  
  
 ---------------------------------------------------------------
 Warning -- This program may not be used in any manner that
 competes with the business of Gaussian, Inc. or will provide
 assistance to any competitor of Gaussian, Inc.  The licensee
 of this program is prohibited from giving any competitor of
 Gaussian, Inc. access to this program.  By using this program,
 the user acknowledges that Gaussian, Inc. is engaged in the
 business of creating and licensing software in the field of
 computational chemistry and represents and warrants to the
 licensee that it is not a competitor of Gaussian, Inc. and that
 it will not use this program in any manner prohibited above.
 ---------------------------------------------------------------
  

 Cite this work as:
 Gaussian 16, Revision A.03,
 M. J. Frisch, G. W. Trucks, H. B. Schlegel, G. E. Scuseria, 
 M. A. Robb, J. R. Cheeseman, G. Scalmani, V. Barone, 
 G. A. Petersson, H. Nakatsuji, X. Li, M. Caricato, A. V. Marenich, 
 J. Bloino, B. G. Janesko, R. Gomperts, B. Mennucci, H. P. Hratchian, 
 J. V. Ortiz, A. F. Izmaylov, J. L. Sonnenberg, D. Williams-Young, 
 F. Ding, F. Lipparini, F. Egidi, J. Goings, B. Peng, A. Petrone, 
 T. Henderson, D. Ranasinghe, V. G. Zakrzewski, J. Gao, N. Rega, 
 G. Zheng, W. Liang, M. Hada, M. Ehara, K. Toyota, R. Fukuda, 
 J. Hasegawa, M. Ishida, T. Nakajima, Y. Honda, O. Kitao, H. Nakai, 
 T. Vreven, K. Throssell, J. A. Montgomery, Jr., J. E. Peralta, 
 F. Ogliaro, M. J. Bearpark, J. J. Heyd, E. N. Brothers, K. N. Kudin, 
 V. N. Staroverov, T. A. Keith, R. Kobayashi, J. Normand, 
 K. Raghavachari, A. P. Rendell, J. C. Burant, S. S. Iyengar, 
 J. Tomasi, M. Cossi, J. M. Millam, M. Klene, C. Adamo, R. Cammi, 
 J. W. Ochterski, R. L. Martin, K. Morokuma, O. Farkas, 
 J. B. Foresman, and D. J. Fox, Gaussian, Inc., Wallingford CT, 2016.
 
 ******************************************
 Gaussian 16:  ES64L-G16RevA.03 25-Dec-2016
                16-Mar-2022 
 ******************************************
 %mem=5GB
 %nprocshared=4
 Will use up to    4 processors via shared memory.
 %chk=freq_linear.chk
 ------------------------
 # freq cam-b3lyp/cc-pvdz
 ------------------------
 1/10=4,30=1,38=1/1,3;
 2/12=2,17=6,18=5,40=1/2;
 3/5=16,11=2,25=1,30=1,71=2,74=-40,140=1/1,2,3;
 4//1;
 5/5=2,38=5,98=1/2;
 8/6=4,10=90,11=11/1;
 11/6=1,8=1,9=11,15=111,16=1/1,2,10;
 10/6=1/2;
 6/7=2,8=2,9=2,10=2,28=1/1;
 7/8=1,10=1,25=1/1,2,3,16;
 1/10=4,30=1/3;
 99//99;
 -------------------
 Title Card Required
 -------------------
 Symbolic Z-matrix:
 Charge =  0 Multiplicity = 1
 S                     13.9296  -2.04497  -0.28117 
 C                     15.4355  -1.24785  -0.80269 
 C                     12.99216  -0.60397   0.18673 
 C                     15.85508  -0.07057  -0.1681 
 N                     15.04933   0.53255   0.80646 
 H                     15.4275   1.39447   1.17999 
 C                     13.65352   0.50697   0.72824 
 C                     16.2326  -1.83444  -1.78077 
 C                     17.0866   0.486    -0.51833 
 C                     17.47037  -1.28626  -2.10881 
 C                     17.89623  -0.12683  -1.46947 
 H                     18.86136   0.31679  -1.71876 
 H                     18.09518  -1.76486  -2.86365 
 H                     15.88085  -2.74049  -2.277 
 H                     17.4126   1.40852  -0.03147 
 C                     11.60598  -0.6186    0.09747 
 C                     12.88793   1.5778    1.19198 
 C                     10.8315   0.44314   0.58133 
 H                     11.1182  -1.49836  -0.3251 
 C                     11.50039   1.53836   1.13574 
 H                     13.39111   2.45712   1.60132 
 H                     10.93005   2.39522   1.49671 
 C                     9.35031   0.40454   0.50149 
 C                     8.70194  -0.12834  -0.6191 
 C                     8.56048   0.90191   1.54553 
 C                     7.17397   0.86982   1.47451 
 H                     9.03934   1.30031   2.44098 
 C                     7.31535  -0.16143  -0.69619 
 H                     9.29171  -0.50395  -1.45633 
 C                     6.55195   0.33848   0.35133 
 H                     6.82156  -0.57696  -1.57479 
 H                     6.57022   1.25721   2.29501 
 N                     5.11207   0.29519   0.27087 
 C                     4.49803  -0.95165   0.42646 
 C                     4.43581   1.51989   0.10025 
 O                     5.14654  -1.96551   0.55978 
 O                     5.0658    2.55553   0.12124 
 C                     2.96188   1.46709  -0.07057 
 C                     3.01278  -0.94445   0.44844 
 C                     2.28335   0.24491   0.2063 
 C                     2.20872   2.60403  -0.3745 
 C                     0.79655   2.52581  -0.3139 
 O                     2.6727    3.81654  -0.71915 
 C                     0.14616   1.35674  -0.01998 
 C                     0.8731    0.16809   0.23535 
 C                     0.19688  -1.05419   0.51901 
 H                     0.21751   3.42383  -0.52521 
 C                     2.36444  -2.11676   0.73311 
 C                     0.95303  -2.19421   0.80553 
 H                     2.94483  -3.01791   0.92641 
 O                     0.48677  -3.41097   1.13375 
 C                     3.64033   3.97908  -1.77284 
 C                    -0.42689  -3.59143   2.23193 
 C                     0.09755  -4.72534   3.08348 
 H                    -1.41968  -3.80702   1.82193 
 H                    -0.49054  -2.65253   2.80534 
 H                     0.2027   -5.63921   2.48101 
 H                    -0.60589  -4.93362   3.90398 
 H                     1.07852  -4.48237   3.51759 
 C                     3.16784   5.11272  -2.65432 
 H                     3.72004   3.0354   -2.33637 
 H                     4.61586   4.18601  -1.3194 
 H                     2.20483   4.87752  -3.13084 
 H                     3.91019   5.30698  -3.44324 
 H                     3.04583   6.03212  -2.06345 
 C                    -1.27957  -1.10328   0.38632 
 C                    -1.3376    1.36365  -0.0154 
 N                    -1.95074   0.12212   0.18394 
 O                    -1.926    -2.12756   0.42438 
 O                    -1.99073   2.36765  -0.19494 
 C                    -3.38937   0.0769    0.11568 
 C                    -4.12638  -0.13813   1.27399 
 C                    -5.51304  -0.18218   1.21285 
 C                    -6.15199   0.00485  -0.00652 
 C                    -5.418     0.22764  -1.16489 
 C                    -4.03096   0.25696  -1.10376 
 H                    -3.61279  -0.27584   2.22507 
 H                    -6.09941  -0.35138   2.1155 
 H                    -5.92997   0.36925  -2.11624 
 H                    -3.44405   0.42765  -2.00552 
 N                    -7.59526  -0.02793  -0.06901 
 C                    -8.29132   1.03885   0.51407 
 C                    -8.18682  -1.12964  -0.70912 
 C                    -9.77692   0.98203   0.42877 
 C                    -9.67786  -1.16036  -0.77017 
 C                    -10.42668  -0.10351  -0.20147 
 O                    -7.71661   1.95242   1.05779 
 O                    -7.51169  -2.00807  -1.18851 
 C                    -10.50844   2.00551   0.97728 
 C                    -11.92497   1.99714   0.92538 
 C                    -12.5886   0.94241   0.31366 
 H                    -9.98188   2.82988   1.45711 
 C                    -11.83963  -0.11485  -0.25356 
 C                    -10.34349  -2.2144   -1.38186 
 C                    -11.76028  -2.22343  -1.43106 
 C                    -12.49145  -1.20043  -0.88186 
 H                    -12.28634  -3.04868  -1.90977 
 C                    -12.59149   3.1194    1.53197 
 N                    -12.98076   4.07495   2.05482 
 C                    -9.68139  -3.33719  -1.99235 
 N                    -9.30128  -4.29411  -2.51949 
 C                    -14.07737   0.90428   0.24432 
 C                    -13.97776  -1.25647  -0.96093 
 N                    -14.66678  -0.19035  -0.38705 
 O                    -14.55147  -2.18041  -1.49597 
 O                    -14.76674   1.78216   0.71334 
 C                    -16.1293  -0.1917   -0.4351 
 H                    -16.44424  -1.10022  -0.95391 
 H                    -16.48381   0.70129  -0.96552 
 H                    -16.53404  -0.16665   0.58471 
 

 GradGradGradGradGradGradGradGradGradGradGradGradGradGradGradGradGradGrad
 Berny optimization.
 Initialization pass.
 Trust Radius=3.00D-01 FncErr=1.00D-07 GrdErr=1.00D-07 EigMax=2.50D+02 EigMin=1.00D-04
 Number of steps in this run=      2 maximum allowed number of steps=      2.
 GradGradGradGradGradGradGradGradGradGradGradGradGradGradGradGradGradGrad

 Stoichiometry    C59H33N7O10S
 Framework group  C1[X(C59H33N7O10S)]
 Deg. of freedom   324
 Full point group                 C1      NOp   1
 Largest Abelian subgroup         C1      NOp   1
 Largest concise Abelian subgroup C1      NOp   1
                         Standard orientation:                         
 ---------------------------------------------------------------------
 Center     Atomic      Atomic             Coordinates (Angstroms)
 Number     Number       Type             X           Y           Z
 ---------------------------------------------------------------------
      1         16           0      -13.929600   -2.044970    0.281170
      2          6           0      -15.435500   -1.247850    0.802690
      3          6           0      -12.992160   -0.603970   -0.186730
      4          6           0      -15.855080   -0.070570    0.168100
      5          7           0      -15.049330    0.532550   -0.806460
      6          1           0      -15.427500    1.394470   -1.179990
      7          6           0      -13.653520    0.506970   -0.728240
      8          6           0      -16.232600   -1.834440    1.780770
      9          6           0      -17.086600    0.486000    0.518330
     10          6           0      -17.470370   -1.286260    2.108810
     11          6           0      -17.896230   -0.126830    1.469470
     12          1           0      -18.861360    0.316790    1.718760
     13          1           0      -18.095180   -1.764860    2.863650
     14          1           0      -15.880850   -2.740490    2.277000
     15          1           0      -17.412600    1.408520    0.031470
     16          6           0      -11.605980   -0.618600   -0.097470
     17          6           0      -12.887930    1.577800   -1.191980
     18          6           0      -10.831500    0.443140   -0.581330
     19          1           0      -11.118200   -1.498360    0.325100
     20          6           0      -11.500390    1.538360   -1.135740
     21          1           0      -13.391110    2.457120   -1.601320
     22          1           0      -10.930050    2.395220   -1.496710
     23          6           0       -9.350310    0.404540   -0.501490
     24          6           0       -8.701940   -0.128340    0.619100
     25          6           0       -8.560480    0.901910   -1.545530
     26          6           0       -7.173970    0.869820   -1.474510
     27          1           0       -9.039340    1.300310   -2.440980
     28          6           0       -7.315350   -0.161430    0.696190
     29          1           0       -9.291710   -0.503950    1.456330
     30          6           0       -6.551950    0.338480   -0.351330
     31          1           0       -6.821560   -0.576960    1.574790
     32          1           0       -6.570220    1.257210   -2.295010
     33          7           0       -5.112070    0.295190   -0.270870
     34          6           0       -4.498030   -0.951650   -0.426460
     35          6           0       -4.435810    1.519890   -0.100250
     36          8           0       -5.146540   -1.965510   -0.559780
     37          8           0       -5.065800    2.555530   -0.121240
     38          6           0       -2.961880    1.467090    0.070570
     39          6           0       -3.012780   -0.944450   -0.448440
     40          6           0       -2.283350    0.244910   -0.206300
     41          6           0       -2.208720    2.604030    0.374500
     42          6           0       -0.796550    2.525810    0.313900
     43          8           0       -2.672700    3.816540    0.719150
     44          6           0       -0.146160    1.356740    0.019980
     45          6           0       -0.873100    0.168090   -0.235350
     46          6           0       -0.196880   -1.054190   -0.519010
     47          1           0       -0.217510    3.423830    0.525210
     48          6           0       -2.364440   -2.116760   -0.733110
     49          6           0       -0.953030   -2.194210   -0.805530
     50          1           0       -2.944830   -3.017910   -0.926410
     51          8           0       -0.486770   -3.410970   -1.133750
     52          6           0       -3.640330    3.979080    1.772840
     53          6           0        0.426890   -3.591430   -2.231930
     54          6           0       -0.097550   -4.725340   -3.083480
     55          1           0        1.419680   -3.807020   -1.821930
     56          1           0        0.490540   -2.652530   -2.805340
     57          1           0       -0.202700   -5.639210   -2.481010
     58          1           0        0.605890   -4.933620   -3.903980
     59          1           0       -1.078520   -4.482370   -3.517590
     60          6           0       -3.167840    5.112720    2.654320
     61          1           0       -3.720040    3.035400    2.336370
     62          1           0       -4.615860    4.186010    1.319400
     63          1           0       -2.204830    4.877520    3.130840
     64          1           0       -3.910190    5.306980    3.443240
     65          1           0       -3.045830    6.032120    2.063450
     66          6           0        1.279570   -1.103280   -0.386320
     67          6           0        1.337600    1.363650    0.015400
     68          7           0        1.950740    0.122120   -0.183940
     69          8           0        1.926000   -2.127560   -0.424380
     70          8           0        1.990730    2.367650    0.194940
     71          6           0        3.389370    0.076900   -0.115680
     72          6           0        4.126380   -0.138130   -1.273990
     73          6           0        5.513040   -0.182180   -1.212850
     74          6           0        6.151990    0.004850    0.006520
     75          6           0        5.418000    0.227640    1.164890
     76          6           0        4.030960    0.256960    1.103760
     77          1           0        3.612790   -0.275840   -2.225070
     78          1           0        6.099410   -0.351380   -2.115500
     79          1           0        5.929970    0.369250    2.116240
     80          1           0        3.444050    0.427650    2.005520
     81          7           0        7.595260   -0.027930    0.069010
     82          6           0        8.291320    1.038850   -0.514070
     83          6           0        8.186820   -1.129640    0.709120
     84          6           0        9.776920    0.982030   -0.428770
     85          6           0        9.677860   -1.160360    0.770170
     86          6           0       10.426680   -0.103510    0.201470
     87          8           0        7.716610    1.952420   -1.057790
     88          8           0        7.511690   -2.008070    1.188510
     89          6           0       10.508440    2.005510   -0.977280
     90          6           0       11.924970    1.997140   -0.925380
     91          6           0       12.588600    0.942410   -0.313660
     92          1           0        9.981880    2.829880   -1.457110
     93          6           0       11.839630   -0.114850    0.253560
     94          6           0       10.343490   -2.214400    1.381860
     95          6           0       11.760280   -2.223430    1.431060
     96          6           0       12.491450   -1.200430    0.881860
     97          1           0       12.286340   -3.048680    1.909770
     98          6           0       12.591490    3.119400   -1.531970
     99          7           0       12.980760    4.074950   -2.054820
    100          6           0        9.681390   -3.337190    1.992350
    101          7           0        9.301280   -4.294110    2.519490
    102          6           0       14.077370    0.904280   -0.244320
    103          6           0       13.977760   -1.256470    0.960930
    104          7           0       14.666780   -0.190350    0.387050
    105          8           0       14.551470   -2.180410    1.495970
    106          8           0       14.766740    1.782160   -0.713340
    107          6           0       16.129300   -0.191700    0.435100
    108          1           0       16.444240   -1.100220    0.953910
    109          1           0       16.483810    0.701290    0.965520
    110          1           0       16.534040   -0.166650   -0.584710
 ---------------------------------------------------------------------
 Rotational constants (GHZ):           0.0958354           0.0051763           0.0050334
 Standard basis: CC-pVDZ (5D, 7F)
 There are  1324 symmetry adapted cartesian basis functions of A   symmetry.
 There are  1247 symmetry adapted basis functions of A   symmetry.
  1247 basis functions,  2810 primitive gaussians,  1324 cartesian basis functions
   266 alpha electrons      266 beta electrons
       nuclear repulsion energy     10555.2448957867 Hartrees.
 NAtoms=  110 NActive=  110 NUniq=  110 SFac= 1.00D+00 NAtFMM=   60 NAOKFM=T Big=T
 Integral buffers will be    131072 words long.
 Raffenetti 2 integral format.
 Two-electron integral symmetry is turned on.
 One-electron integrals computed using PRISM.
 NBasis=  1247 RedAO= T EigKep=  6.83D-05  NBF=  1247
 NBsUse=  1247 1.00D-06 EigRej= -1.00D+00 NBFU=  1247
 ExpMin= 1.22D-01 ExpMax= 1.11D+05 ExpMxC= 1.07D+03 IAcc=3 IRadAn=         5 AccDes= 0.00D+00
 Harris functional with IExCor=20419 and IRadAn=       5 diagonalized for initial guess.
 HarFok:  IExCor=20419 AccDes= 0.00D+00 IRadAn=         5 IDoV= 1 UseB2=F ITyADJ=14
 ICtDFT=  3500011 ScaDFX=  1.000000  1.000000  1.000000  1.000000
 FoFCou: FMM=F IPFlag=           0 FMFlag=      100000 FMFlg1=        2001
         NFxFlg=           0 DoJE=T BraDBF=F KetDBF=T FulRan=T
         wScrn=  0.000000 ICntrl=       500 IOpCl=  0 I1Cent=   200000004 NGrid=           0
         NMat0=    1 NMatS0=      1 NMatT0=    0 NMatD0=    1 NMtDS0=    0 NMtDT0=    0
 Petite list used in FoFCou.
 Requested convergence on RMS density matrix=1.00D-08 within 128 cycles.
 Requested convergence on MAX density matrix=1.00D-06.
 Requested convergence on             energy=1.00D-06.
 No special actions if energy rises.
 Integral accuracy reduced to 1.0D-05 until final iterations.
 Initial convergence to 1.0D-05 achieved.  Increase integral accuracy.
 SCF Done:  E(RCAM-B3LYP) =  -3800.53673617     A.U. after   19 cycles
            NFock= 19  Conv=0.67D-08     -V/T= 2.0056
 DoSCS=F DFT=T ScalE2(SS,OS)=  1.000000  1.000000
 Range of M.O.s used for correlation:     1  1247
 NBasis=  1247 NAE=   266 NBE=   266 NFC=     0 NFV=     0
 NROrb=   1247 NOA=   266 NOB=   266 NVA=   981 NVB=   981

 **** Warning!!: The largest alpha MO coefficient is  0.22397160D+02

 PrsmSu:  requested number of processors reduced to:   2 ShMem   1 Linda.
 Symmetrizing basis deriv contribution to polar:
 IMax=3 JMax=2 DiffMx= 0.00D+00
 G2DrvN: will do    37 centers at a time, making    3 passes.
 Calling FoFCou, ICntrl=  3107 FMM=T I1Cent=   0 AccDes= 0.00D+00.
 Calling FoFCou, ICntrl=  3107 FMM=T I1Cent=   0 AccDes= 0.00D+00.
 Calling FoFCou, ICntrl=  3107 FMM=T I1Cent=   0 AccDes= 0.00D+00.
 End of G2Drv F.D. properties file   721 does not exist.
 End of G2Drv F.D. properties file   722 does not exist.
 End of G2Drv F.D. properties file   788 does not exist.
          IDoAtm=11111111111111111111111111111111111111111111111111
          IDoAtm=11111111111111111111111111111111111111111111111111
          IDoAtm=1111111111
          Differentiating once with respect to electric field.
                with respect to dipole field.
          Differentiating once with respect to nuclear coordinates.
 CalDSu exits because no D1Ps are significant.
          There are   333 degrees of freedom in the 1st order CPHF.  IDoFFX=6 NUNeed=     3.
    333 vectors produced by pass  0 Test12= 2.61D-13 1.00D-09 XBig12= 6.93D+02 7.78D+00.
 AX will form    72 AO Fock derivatives at one time.
    333 vectors produced by pass  1 Test12= 2.61D-13 1.00D-09 XBig12= 9.20D+01 1.32D+00.
    333 vectors produced by pass  2 Test12= 2.61D-13 1.00D-09 XBig12= 2.52D+00 2.01D-01.
    330 vectors produced by pass  3 Test12= 2.61D-13 1.00D-09 XBig12= 4.12D-02 1.89D-02.
    330 vectors produced by pass  4 Test12= 2.61D-13 1.00D-09 XBig12= 3.34D-04 1.26D-03.
    330 vectors produced by pass  5 Test12= 2.61D-13 1.00D-09 XBig12= 1.78D-06 8.77D-05.
    286 vectors produced by pass  6 Test12= 2.61D-13 1.00D-09 XBig12= 7.36D-09 5.45D-06.
     85 vectors produced by pass  7 Test12= 2.61D-13 1.00D-09 XBig12= 2.73D-11 2.75D-07.
     17 vectors produced by pass  8 Test12= 2.61D-13 1.00D-09 XBig12= 9.78D-14 1.57D-08.
      4 vectors produced by pass  9 Test12= 2.61D-13 1.00D-09 XBig12= 1.68D-15 1.60D-09.
      1 vectors produced by pass 10 Test12= 2.61D-13 1.00D-09 XBig12= 1.67D-15 1.35D-09.
 InvSVY:  IOpt=1 It=  1 EMax= 4.62D-14
 Solved reduced A of dimension  2382 with   333 vectors.
 Isotropic polarizability for W=    0.000000      797.10 Bohr**3.
 End of Minotr F.D. properties file   721 does not exist.
 End of Minotr F.D. properties file   722 does not exist.
 End of Minotr F.D. properties file   788 does not exist.
 Hyperfine terms turned off by default for NAtoms > 100.

 **********************************************************************

            Population analysis using the SCF density.

 **********************************************************************

 Orbital symmetries:
       Occupied  (A) (A) (A) (A) (A) (A) (A) (A) (A) (A) (A) (A)
                 (A) (A) (A) (A) (A) (A) (A) (A) (A) (A) (A) (A)
                 (A) (A) (A) (A) (A) (A) (A) (A) (A) (A) (A) (A)
                 (A) (A) (A) (A) (A) (A) (A) (A) (A) (A) (A) (A)
                 (A) (A) (A) (A) (A) (A) (A) (A) (A) (A) (A) (A)
                 (A) (A) (A) (A) (A) (A) (A) (A) (A) (A) (A) (A)
                 (A) (A) (A) (A) (A) (A) (A) (A) (A) (A) (A) (A)
                 (A) (A) (A) (A) (A) (A) (A) (A) (A) (A) (A) (A)
                 (A) (A) (A) (A) (A) (A) (A) (A) (A) (A) (A) (A)
                 (A) (A) (A) (A) (A) (A) (A) (A) (A) (A) (A) (A)
                 (A) (A) (A) (A) (A) (A) (A) (A) (A) (A) (A) (A)
                 (A) (A) (A) (A) (A) (A) (A) (A) (A) (A) (A) (A)
                 (A) (A) (A) (A) (A) (A) (A) (A) (A) (A) (A) (A)
                 (A) (A) (A) (A) (A) (A) (A) (A) (A) (A) (A) (A)
                 (A) (A) (A) (A) (A) (A) (A) (A) (A) (A) (A) (A)
                 (A) (A) (A) (A) (A) (A) (A) (A) (A) (A) (A) (A)
                 (A) (A) (A) (A) (A) (A) (A) (A) (A) (A) (A) (A)
                 (A) (A) (A) (A) (A) (A) (A) (A) (A) (A) (A) (A)
                 (A) (A) (A) (A) (A) (A) (A) (A) (A) (A) (A) (A)
                 (A) (A) (A) (A) (A) (A) (A) (A) (A) (A) (A) (A)
                 (A) (A) (A) (A) (A) (A) (A) (A) (A) (A) (A) (A)
                 (A) (A) (A) (A) (A) (A) (A) (A) (A) (A) (A) (A)
                 (A) (A)
       Virtual   (A) (A) (A) (A) (A) (A) (A) (A) (A) (A) (A) (A)
                 (A) (A) (A) (A) (A) (A) (A) (A) (A) (A) (A) (A)
                 (A) (A) (A) (A) (A) (A) (A) (A) (A) (A) (A) (A)
                 (A) (A) (A) (A) (A) (A) (A) (A) (A) (A) (A) (A)
                 (A) (A) (A) (A) (A) (A) (A) (A) (A) (A) (A) (A)
                 (A) (A) (A) (A) (A) (A) (A) (A) (A) (A) (A) (A)
                 (A) (A) (A) (A) (A) (A) (A) (A) (A) (A) (A) (A)
                 (A) (A) (A) (A) (A) (A) (A) (A) (A) (A) (A) (A)
                 (A) (A) (A) (A) (A) (A) (A) (A) (A) (A) (A) (A)
                 (A) (A) (A) (A) (A) (A) (A) (A) (A) (A) (A) (A)
                 (A) (A) (A) (A) (A) (A) (A) (A) (A) (A) (A) (A)
                 (A) (A) (A) (A) (A) (A) (A) (A) (A) (A) (A) (A)
                 (A) (A) (A) (A) (A) (A) (A) (A) (A) (A) (A) (A)
                 (A) (A) (A) (A) (A) (A) (A) (A) (A) (A) (A) (A)
                 (A) (A) (A) (A) (A) (A) (A) (A) (A) (A) (A) (A)
                 (A) (A) (A) (A) (A) (A) (A) (A) (A) (A) (A) (A)
                 (A) (A) (A) (A) (A) (A) (A) (A) (A) (A) (A) (A)
                 (A) (A) (A) (A) (A) (A) (A) (A) (A) (A) (A) (A)
                 (A) (A) (A) (A) (A) (A) (A) (A) (A) (A) (A) (A)
                 (A) (A) (A) (A) (A) (A) (A) (A) (A) (A) (A) (A)
                 (A) (A) (A) (A) (A) (A) (A) (A) (A) (A) (A) (A)
                 (A) (A) (A) (A) (A) (A) (A) (A) (A) (A) (A) (A)
                 (A) (A) (A) (A) (A) (A) (A) (A) (A) (A) (A) (A)
                 (A) (A) (A) (A) (A) (A) (A) (A) (A) (A) (A) (A)
                 (A) (A) (A) (A) (A) (A) (A) (A) (A) (A) (A) (A)
                 (A) (A) (A) (A) (A) (A) (A) (A) (A) (A) (A) (A)
                 (A) (A) (A) (A) (A) (A) (A) (A) (A) (A) (A) (A)
                 (A) (A) (A) (A) (A) (A) (A) (A) (A) (A) (A) (A)
                 (A) (A) (A) (A) (A) (A) (A) (A) (A) (A) (A) (A)
                 (A) (A) (A) (A) (A) (A) (A) (A) (A) (A) (A) (A)
                 (A) (A) (A) (A) (A) (A) (A) (A) (A) (A) (A) (A)
                 (A) (A) (A) (A) (A) (A) (A) (A) (A) (A) (A) (A)
                 (A) (A) (A) (A) (A) (A) (A) (A) (A) (A) (A) (A)
                 (A) (A) (A) (A) (A) (A) (A) (A) (A) (A) (A) (A)
                 (A) (A) (A) (A) (A) (A) (A) (A) (A) (A) (A) (A)
                 (A) (A) (A) (A) (A) (A) (A) (A) (A) (A) (A) (A)
                 (A) (A) (A) (A) (A) (A) (A) (A) (A) (A) (A) (A)
                 (A) (A) (A) (A) (A) (A) (A) (A) (A) (A) (A) (A)
                 (A) (A) (A) (A) (A) (A) (A) (A) (A) (A) (A) (A)
                 (A) (A) (A) (A) (A) (A) (A) (A) (A) (A) (A) (A)
                 (A) (A) (A) (A) (A) (A) (A) (A) (A) (A) (A) (A)
                 (A) (A) (A) (A) (A) (A) (A) (A) (A) (A) (A) (A)
                 (A) (A) (A) (A) (A) (A) (A) (A) (A) (A) (A) (A)
                 (A) (A) (A) (A) (A) (A) (A) (A) (A) (A) (A) (A)
                 (A) (A) (A) (A) (A) (A) (A) (A) (A) (A) (A) (A)
                 (A) (A) (A) (A) (A) (A) (A) (A) (A) (A) (A) (A)
                 (A) (A) (A) (A) (A) (A) (A) (A) (A) (A) (A) (A)
                 (A) (A) (A) (A) (A) (A) (A) (A) (A) (A) (A) (A)
                 (A) (A) (A) (A) (A) (A) (A) (A) (A) (A) (A) (A)
                 (A) (A) (A) (A) (A) (A) (A) (A) (A) (A) (A) (A)
                 (A) (A) (A) (A) (A) (A) (A) (A) (A) (A) (A) (A)
                 (A) (A) (A) (A) (A) (A) (A) (A) (A) (A) (A) (A)
                 (A) (A) (A) (A) (A) (A) (A) (A) (A) (A) (A) (A)
                 (A) (A) (A) (A) (A) (A) (A) (A) (A) (A) (A) (A)
                 (A) (A) (A) (A) (A) (A) (A) (A) (A) (A) (A) (A)
                 (A) (A) (A) (A) (A) (A) (A) (A) (A) (A) (A) (A)
                 (A) (A) (A) (A) (A) (A) (A) (A) (A) (A) (A) (A)
                 (A) (A) (A) (A) (A) (A) (A) (A) (A) (A) (A) (A)
                 (A) (A) (A) (A) (A) (A) (A) (A) (A) (A) (A) (A)
                 (A) (A) (A) (A) (A) (A) (A) (A) (A) (A) (A) (A)
                 (A) (A) (A) (A) (A) (A) (A) (A) (A) (A) (A) (A)
                 (A) (A) (A) (A) (A) (A) (A) (A) (A) (A) (A) (A)
                 (A) (A) (A) (A) (A) (A) (A) (A) (A) (A) (A) (A)
                 (A) (A) (A) (A) (A) (A) (A) (A) (A) (A) (A) (A)
                 (A) (A) (A) (A) (A) (A) (A) (A) (A) (A) (A) (A)
                 (A) (A) (A) (A) (A) (A) (A) (A) (A) (A) (A) (A)
                 (A) (A) (A) (A) (A) (A) (A) (A) (A) (A) (A) (A)
                 (A) (A) (A) (A) (A) (A) (A) (A) (A) (A) (A) (A)
                 (A) (A) (A) (A) (A) (A) (A) (A) (A) (A) (A) (A)
                 (A) (A) (A) (A) (A) (A) (A) (A) (A) (A) (A) (A)
                 (A) (A) (A) (A) (A) (A) (A) (A) (A) (A) (A) (A)
                 (A) (A) (A) (A) (A) (A) (A) (A) (A) (A) (A) (A)
                 (A) (A) (A) (A) (A) (A) (A) (A) (A) (A) (A) (A)
                 (A) (A) (A) (A) (A) (A) (A) (A) (A) (A) (A) (A)
                 (A) (A) (A) (A) (A) (A) (A) (A) (A) (A) (A) (A)
                 (A) (A) (A) (A) (A) (A) (A) (A) (A) (A) (A) (A)
                 (A) (A) (A) (A) (A) (A) (A) (A) (A) (A) (A) (A)
                 (A) (A) (A) (A) (A) (A) (A) (A) (A) (A) (A) (A)
                 (A) (A) (A) (A) (A) (A) (A) (A) (A) (A) (A) (A)
                 (A) (A) (A) (A) (A) (A) (A) (A) (A) (A) (A) (A)
                 (A) (A) (A) (A) (A) (A) (A) (A) (A) (A) (A) (A)
                 (A) (A) (A) (A) (A) (A) (A) (A) (A)
 The electronic state is 1-A.
 Alpha  occ. eigenvalues --  -88.96038 -19.25383 -19.25255 -19.23788 -19.23783
 Alpha  occ. eigenvalues --  -19.23693 -19.23579 -19.21535 -19.21436 -19.21293
 Alpha  occ. eigenvalues --  -19.21108 -14.49247 -14.49098 -14.47300 -14.46868
 Alpha  occ. eigenvalues --  -14.43994 -14.42807 -14.42758 -10.42245 -10.42016
 Alpha  occ. eigenvalues --  -10.42000 -10.41983 -10.40224 -10.39967 -10.39806
 Alpha  occ. eigenvalues --  -10.39470 -10.36377 -10.36377 -10.36114 -10.36113
 Alpha  occ. eigenvalues --  -10.34738 -10.34699 -10.34554 -10.34502 -10.33776
 Alpha  occ. eigenvalues --  -10.33754 -10.33452 -10.33432 -10.32735 -10.32404
 Alpha  occ. eigenvalues --  -10.32373 -10.32360 -10.32071 -10.32027 -10.31776
 Alpha  occ. eigenvalues --  -10.31667 -10.31471 -10.31168 -10.31102 -10.30901
 Alpha  occ. eigenvalues --  -10.30722 -10.30672 -10.30644 -10.30619 -10.29709
 Alpha  occ. eigenvalues --  -10.29577 -10.29560 -10.29464 -10.28946 -10.28893
 Alpha  occ. eigenvalues --  -10.28735 -10.28657 -10.28006 -10.27475 -10.27358
 Alpha  occ. eigenvalues --  -10.27343 -10.27331 -10.27296 -10.27261 -10.27182
 Alpha  occ. eigenvalues --  -10.27134 -10.27063 -10.26988 -10.26986 -10.26448
 Alpha  occ. eigenvalues --  -10.26264 -10.26234  -8.02346  -5.98882  -5.98495
 Alpha  occ. eigenvalues --   -5.97808  -1.19043  -1.18995  -1.17249  -1.17057
 Alpha  occ. eigenvalues --   -1.17037  -1.16981  -1.16284  -1.16124  -1.14678
 Alpha  occ. eigenvalues --   -1.14390  -1.06863  -1.06395  -1.05628  -1.04841
 Alpha  occ. eigenvalues --   -1.04479  -1.04352  -1.01693  -1.00688  -1.00554
 Alpha  occ. eigenvalues --   -0.98305  -0.96820  -0.96419  -0.95134  -0.94909
 Alpha  occ. eigenvalues --   -0.94534  -0.94063  -0.91963  -0.91448  -0.89594
 Alpha  occ. eigenvalues --   -0.89297  -0.88148  -0.86803  -0.86440  -0.86102
 Alpha  occ. eigenvalues --   -0.85731  -0.85522  -0.84320  -0.83931  -0.83802
 Alpha  occ. eigenvalues --   -0.83162  -0.82854  -0.82303  -0.81006  -0.79216
 Alpha  occ. eigenvalues --   -0.78582  -0.77958  -0.77621  -0.77097  -0.76343
 Alpha  occ. eigenvalues --   -0.75364  -0.74535  -0.73812  -0.73520  -0.72438
 Alpha  occ. eigenvalues --   -0.72247  -0.71896  -0.71599  -0.71048  -0.70367
 Alpha  occ. eigenvalues --   -0.70110  -0.69977  -0.68839  -0.68481  -0.67899
 Alpha  occ. eigenvalues --   -0.67121  -0.65662  -0.65520  -0.65320  -0.63787
 Alpha  occ. eigenvalues --   -0.63401  -0.63096  -0.62867  -0.61809  -0.61706
 Alpha  occ. eigenvalues --   -0.60831  -0.60448  -0.60403  -0.59865  -0.59733
 Alpha  occ. eigenvalues --   -0.59351  -0.59109  -0.58919  -0.57535  -0.57363
 Alpha  occ. eigenvalues --   -0.57122  -0.56975  -0.56538  -0.56512  -0.56300
 Alpha  occ. eigenvalues --   -0.56245  -0.56138  -0.55993  -0.55104  -0.54743
 Alpha  occ. eigenvalues --   -0.54303  -0.54275  -0.53987  -0.53948  -0.53742
 Alpha  occ. eigenvalues --   -0.53527  -0.53115  -0.53036  -0.52515  -0.52319
 Alpha  occ. eigenvalues --   -0.52263  -0.52136  -0.51792  -0.51621  -0.51532
 Alpha  occ. eigenvalues --   -0.51479  -0.51060  -0.50928  -0.50705  -0.50619
 Alpha  occ. eigenvalues --   -0.50094  -0.50000  -0.49833  -0.49484  -0.49182
 Alpha  occ. eigenvalues --   -0.48963  -0.48820  -0.48705  -0.48620  -0.48609
 Alpha  occ. eigenvalues --   -0.48365  -0.47912  -0.47753  -0.47489  -0.47446
 Alpha  occ. eigenvalues --   -0.47237  -0.46961  -0.46808  -0.46373  -0.45984
 Alpha  occ. eigenvalues --   -0.45714  -0.45490  -0.45218  -0.45187  -0.45097
 Alpha  occ. eigenvalues --   -0.44974  -0.44857  -0.44799  -0.44148  -0.44064
 Alpha  occ. eigenvalues --   -0.43308  -0.42607  -0.42497  -0.42438  -0.41846
 Alpha  occ. eigenvalues --   -0.41671  -0.41588  -0.41185  -0.40756  -0.40133
 Alpha  occ. eigenvalues --   -0.39940  -0.39712  -0.39431  -0.38821  -0.37956
 Alpha  occ. eigenvalues --   -0.37908  -0.37756  -0.37468  -0.36924  -0.36422
 Alpha  occ. eigenvalues --   -0.36384  -0.36372  -0.36231  -0.35975  -0.35546
 Alpha  occ. eigenvalues --   -0.35395  -0.35227  -0.34652  -0.34373  -0.33968
 Alpha  occ. eigenvalues --   -0.33533  -0.33010  -0.32896  -0.32021  -0.31958
 Alpha  occ. eigenvalues --   -0.31642  -0.31478  -0.29822  -0.29023  -0.27993
 Alpha  occ. eigenvalues --   -0.23841
 Alpha virt. eigenvalues --   -0.11766  -0.07880  -0.05248  -0.04564  -0.01887
 Alpha virt. eigenvalues --   -0.01772   0.00483   0.00526   0.01346   0.01795
 Alpha virt. eigenvalues --    0.02166   0.02646   0.03209   0.03422   0.04340
 Alpha virt. eigenvalues --    0.04409   0.05584   0.06995   0.07158   0.07424
 Alpha virt. eigenvalues --    0.07673   0.07786   0.08096   0.08343   0.09025
 Alpha virt. eigenvalues --    0.09187   0.10550   0.10665   0.11031   0.11117
 Alpha virt. eigenvalues --    0.11416   0.11472   0.12311   0.12448   0.12509
 Alpha virt. eigenvalues --    0.13438   0.13632   0.13686   0.13845   0.13987
 Alpha virt. eigenvalues --    0.14427   0.14717   0.14892   0.15300   0.15408
 Alpha virt. eigenvalues --    0.15859   0.16003   0.16355   0.16643   0.16864
 Alpha virt. eigenvalues --    0.17155   0.17282   0.17456   0.17557   0.17876
 Alpha virt. eigenvalues --    0.17968   0.18058   0.18589   0.18688   0.18747
 Alpha virt. eigenvalues --    0.18770   0.18980   0.19206   0.19616   0.19729
 Alpha virt. eigenvalues --    0.20326   0.20583   0.20681   0.20704   0.20959
 Alpha virt. eigenvalues --    0.21130   0.22116   0.22253   0.22581   0.22718
 Alpha virt. eigenvalues --    0.23621   0.23921   0.24324   0.24620   0.25396
 Alpha virt. eigenvalues --    0.25682   0.25905   0.25959   0.26364   0.26385
 Alpha virt. eigenvalues --    0.26574   0.26996   0.27111   0.27512   0.27669
 Alpha virt. eigenvalues --    0.27867   0.28062   0.28571   0.28917   0.29121
 Alpha virt. eigenvalues --    0.29414   0.29946   0.30339   0.30500   0.31580
 Alpha virt. eigenvalues --    0.32099   0.32356   0.32579   0.32832   0.33414
 Alpha virt. eigenvalues --    0.33792   0.34115   0.34230   0.34712   0.34788
 Alpha virt. eigenvalues --    0.34959   0.35638   0.35791   0.36126   0.36299
 Alpha virt. eigenvalues --    0.36388   0.37031   0.37446   0.37582   0.37946
 Alpha virt. eigenvalues --    0.38877   0.39119   0.39436   0.39554   0.40266
 Alpha virt. eigenvalues --    0.40482   0.40950   0.41273   0.41528   0.41925
 Alpha virt. eigenvalues --    0.42039   0.42334   0.42933   0.43259   0.43454
 Alpha virt. eigenvalues --    0.43798   0.44127   0.44401   0.44628   0.44919
 Alpha virt. eigenvalues --    0.45027   0.45385   0.45519   0.45920   0.46108
 Alpha virt. eigenvalues --    0.46454   0.46870   0.47148   0.47228   0.47560
 Alpha virt. eigenvalues --    0.47739   0.47848   0.48199   0.48624   0.48887
 Alpha virt. eigenvalues --    0.48951   0.49171   0.49314   0.49577   0.49768
 Alpha virt. eigenvalues --    0.49944   0.50240   0.50419   0.50444   0.50547
 Alpha virt. eigenvalues --    0.50639   0.50739   0.50854   0.50951   0.51047
 Alpha virt. eigenvalues --    0.51105   0.51215   0.51342   0.51492   0.51529
 Alpha virt. eigenvalues --    0.51995   0.52175   0.52229   0.52753   0.52833
 Alpha virt. eigenvalues --    0.52881   0.53010   0.53248   0.53320   0.53540
 Alpha virt. eigenvalues --    0.53932   0.53969   0.54225   0.54353   0.54488
 Alpha virt. eigenvalues --    0.54593   0.54799   0.54924   0.55013   0.55227
 Alpha virt. eigenvalues --    0.55293   0.55577   0.55663   0.55830   0.55856
 Alpha virt. eigenvalues --    0.55969   0.56167   0.56372   0.56403   0.56478
 Alpha virt. eigenvalues --    0.56588   0.56728   0.56934   0.57212   0.57237
 Alpha virt. eigenvalues --    0.57444   0.57538   0.57695   0.57840   0.57878
 Alpha virt. eigenvalues --    0.57946   0.58300   0.58383   0.58877   0.59292
 Alpha virt. eigenvalues --    0.59524   0.59765   0.59928   0.60131   0.60424
 Alpha virt. eigenvalues --    0.60600   0.61126   0.61333   0.61471   0.61967
 Alpha virt. eigenvalues --    0.62053   0.62282   0.62870   0.63213   0.63469
 Alpha virt. eigenvalues --    0.63479   0.63675   0.64043   0.64208   0.64374
 Alpha virt. eigenvalues --    0.64528   0.64981   0.65227   0.65302   0.65441
 Alpha virt. eigenvalues --    0.65698   0.65860   0.66141   0.66298   0.66415
 Alpha virt. eigenvalues --    0.66647   0.66708   0.66760   0.66958   0.67280
 Alpha virt. eigenvalues --    0.67615   0.67781   0.67905   0.67999   0.68307
 Alpha virt. eigenvalues --    0.68497   0.68615   0.68742   0.68852   0.69327
 Alpha virt. eigenvalues --    0.69519   0.69608   0.69796   0.70369   0.70455
 Alpha virt. eigenvalues --    0.70537   0.70632   0.70745   0.70943   0.71047
 Alpha virt. eigenvalues --    0.71127   0.71238   0.71383   0.71395   0.71553
 Alpha virt. eigenvalues --    0.71630   0.71961   0.72196   0.72501   0.72605
 Alpha virt. eigenvalues --    0.72713   0.73031   0.73205   0.73262   0.73460
 Alpha virt. eigenvalues --    0.73565   0.73860   0.74011   0.74549   0.74693
 Alpha virt. eigenvalues --    0.74722   0.74845   0.75037   0.75438   0.75504
 Alpha virt. eigenvalues --    0.75765   0.76136   0.76380   0.76570   0.76767
 Alpha virt. eigenvalues --    0.76910   0.77002   0.77063   0.77468   0.77610
 Alpha virt. eigenvalues --    0.77751   0.77964   0.78357   0.78569   0.79054
 Alpha virt. eigenvalues --    0.79354   0.79943   0.80109   0.80357   0.80664
 Alpha virt. eigenvalues --    0.80814   0.82314   0.82670   0.82977   0.83507
 Alpha virt. eigenvalues --    0.83979   0.84382   0.84655   0.84875   0.85446
 Alpha virt. eigenvalues --    0.85587   0.85722   0.86151   0.86911   0.87330
 Alpha virt. eigenvalues --    0.87418   0.88143   0.88557   0.88931   0.89475
 Alpha virt. eigenvalues --    0.89917   0.90167   0.90365   0.90575   0.91188
 Alpha virt. eigenvalues --    0.91657   0.91751   0.91822   0.91975   0.92083
 Alpha virt. eigenvalues --    0.92393   0.92543   0.92822   0.93465   0.93648
 Alpha virt. eigenvalues --    0.93696   0.94024   0.94082   0.94491   0.94705
 Alpha virt. eigenvalues --    0.94837   0.95113   0.95285   0.95617   0.95648
 Alpha virt. eigenvalues --    0.95943   0.96035   0.96124   0.96678   0.96836
 Alpha virt. eigenvalues --    0.96868   0.97410   0.97726   0.98055   0.98339
 Alpha virt. eigenvalues --    0.98589   0.98672   0.98964   0.99340   0.99480
 Alpha virt. eigenvalues --    0.99694   0.99754   1.00034   1.00280   1.00465
 Alpha virt. eigenvalues --    1.00717   1.01100   1.01349   1.01603   1.02053
 Alpha virt. eigenvalues --    1.02398   1.02476   1.02675   1.02903   1.03060
 Alpha virt. eigenvalues --    1.03376   1.03781   1.04068   1.04277   1.04587
 Alpha virt. eigenvalues --    1.04609   1.05051   1.05143   1.05310   1.05382
 Alpha virt. eigenvalues --    1.05562   1.05644   1.05925   1.06049   1.06106
 Alpha virt. eigenvalues --    1.06515   1.06889   1.07161   1.07501   1.07960
 Alpha virt. eigenvalues --    1.08025   1.08340   1.08542   1.08917   1.09200
 Alpha virt. eigenvalues --    1.09267   1.09377   1.09669   1.09901   1.10055
 Alpha virt. eigenvalues --    1.10150   1.10254   1.10386   1.10567   1.10929
 Alpha virt. eigenvalues --    1.11322   1.11706   1.11864   1.12260   1.12584
 Alpha virt. eigenvalues --    1.12928   1.13106   1.13403   1.14013   1.14356
 Alpha virt. eigenvalues --    1.14562   1.14632   1.14726   1.14755   1.14927
 Alpha virt. eigenvalues --    1.15060   1.15353   1.15502   1.15961   1.16567
 Alpha virt. eigenvalues --    1.16992   1.17073   1.17858   1.18195   1.18895
 Alpha virt. eigenvalues --    1.19005   1.19237   1.19736   1.20428   1.20643
 Alpha virt. eigenvalues --    1.20990   1.21221   1.21262   1.21872   1.21936
 Alpha virt. eigenvalues --    1.22062   1.22706   1.22854   1.23352   1.23532
 Alpha virt. eigenvalues --    1.23906   1.24263   1.24672   1.25269   1.25740
 Alpha virt. eigenvalues --    1.26332   1.26698   1.27004   1.27119   1.27506
 Alpha virt. eigenvalues --    1.27676   1.27977   1.28288   1.29031   1.29622
 Alpha virt. eigenvalues --    1.30148   1.30292   1.30511   1.31452   1.31863
 Alpha virt. eigenvalues --    1.32499   1.33563   1.33805   1.34060   1.34229
 Alpha virt. eigenvalues --    1.34464   1.35257   1.36006   1.36098   1.36643
 Alpha virt. eigenvalues --    1.37032   1.37713   1.38118   1.38497   1.38845
 Alpha virt. eigenvalues --    1.39164   1.39233   1.39475   1.39556   1.40102
 Alpha virt. eigenvalues --    1.40355   1.41246   1.41389   1.41766   1.42060
 Alpha virt. eigenvalues --    1.42159   1.42317   1.42830   1.43198   1.43564
 Alpha virt. eigenvalues --    1.43616   1.43694   1.44354   1.44520   1.44580
 Alpha virt. eigenvalues --    1.44859   1.45734   1.45795   1.46126   1.46208
 Alpha virt. eigenvalues --    1.46508   1.46600   1.47043   1.47447   1.47780
 Alpha virt. eigenvalues --    1.48156   1.48284   1.48573   1.49026   1.49553
 Alpha virt. eigenvalues --    1.49657   1.50025   1.50286   1.50515   1.51121
 Alpha virt. eigenvalues --    1.51305   1.51336   1.51635   1.51818   1.52236
 Alpha virt. eigenvalues --    1.52456   1.52733   1.53384   1.53789   1.54029
 Alpha virt. eigenvalues --    1.54288   1.54489   1.54680   1.55236   1.55333
 Alpha virt. eigenvalues --    1.55581   1.55858   1.56025   1.56484   1.56576
 Alpha virt. eigenvalues --    1.56959   1.57109   1.57501   1.57959   1.58212
 Alpha virt. eigenvalues --    1.58460   1.58778   1.59201   1.59344   1.59712
 Alpha virt. eigenvalues --    1.59966   1.60418   1.60841   1.61201   1.61379
 Alpha virt. eigenvalues --    1.61484   1.61523   1.62088   1.62372   1.62407
 Alpha virt. eigenvalues --    1.62811   1.62949   1.63627   1.64029   1.64285
 Alpha virt. eigenvalues --    1.64419   1.64798   1.65023   1.65629   1.66004
 Alpha virt. eigenvalues --    1.66209   1.66308   1.66584   1.66839   1.67083
 Alpha virt. eigenvalues --    1.67398   1.67628   1.67748   1.67909   1.68244
 Alpha virt. eigenvalues --    1.68372   1.68606   1.68827   1.69522   1.69561
 Alpha virt. eigenvalues --    1.69759   1.70163   1.70242   1.70555   1.70720
 Alpha virt. eigenvalues --    1.70873   1.71015   1.71154   1.71231   1.71357
 Alpha virt. eigenvalues --    1.71498   1.71769   1.71829   1.71857   1.72003
 Alpha virt. eigenvalues --    1.72457   1.72588   1.72655   1.72833   1.72923
 Alpha virt. eigenvalues --    1.73060   1.73207   1.73530   1.73766   1.74067
 Alpha virt. eigenvalues --    1.74304   1.74574   1.75008   1.75098   1.75522
 Alpha virt. eigenvalues --    1.75623   1.76088   1.76331   1.76368   1.76771
 Alpha virt. eigenvalues --    1.76865   1.77153   1.77632   1.77975   1.78340
 Alpha virt. eigenvalues --    1.78538   1.78966   1.79276   1.79443   1.79819
 Alpha virt. eigenvalues --    1.80231   1.80355   1.80442   1.80557   1.80897
 Alpha virt. eigenvalues --    1.80975   1.81070   1.81293   1.81674   1.81786
 Alpha virt. eigenvalues --    1.81887   1.82175   1.82461   1.82532   1.82739
 Alpha virt. eigenvalues --    1.83141   1.83161   1.83730   1.83900   1.84123
 Alpha virt. eigenvalues --    1.84360   1.84627   1.84901   1.85003   1.85064
 Alpha virt. eigenvalues --    1.85530   1.86024   1.86364   1.86823   1.87005
 Alpha virt. eigenvalues --    1.87249   1.87569   1.87789   1.87879   1.88217
 Alpha virt. eigenvalues --    1.88467   1.88829   1.89078   1.89345   1.89701
 Alpha virt. eigenvalues --    1.90128   1.90475   1.90667   1.90858   1.90999
 Alpha virt. eigenvalues --    1.91178   1.91403   1.91916   1.92090   1.92140
 Alpha virt. eigenvalues --    1.92227   1.92449   1.92651   1.92894   1.93482
 Alpha virt. eigenvalues --    1.93891   1.94052   1.94614   1.94787   1.95075
 Alpha virt. eigenvalues --    1.95713   1.95923   1.96132   1.96545   1.96972
 Alpha virt. eigenvalues --    1.97200   1.97438   1.97775   1.97904   1.97977
 Alpha virt. eigenvalues --    1.98239   1.98527   1.98878   1.99094   1.99842
 Alpha virt. eigenvalues --    2.00570   2.01066   2.01858   2.02056   2.02533
 Alpha virt. eigenvalues --    2.02810   2.02998   2.03329   2.03853   2.04163
 Alpha virt. eigenvalues --    2.04499   2.04764   2.04939   2.05139   2.05364
 Alpha virt. eigenvalues --    2.05713   2.05838   2.06185   2.06283   2.06665
 Alpha virt. eigenvalues --    2.07136   2.07258   2.07465   2.07700   2.07834
 Alpha virt. eigenvalues --    2.08759   2.08913   2.09332   2.09539   2.09631
 Alpha virt. eigenvalues --    2.10127   2.10364   2.11420   2.11916   2.12047
 Alpha virt. eigenvalues --    2.12789   2.13071   2.13207   2.13759   2.13919
 Alpha virt. eigenvalues --    2.14390   2.14836   2.14988   2.15369   2.15702
 Alpha virt. eigenvalues --    2.15824   2.16674   2.16709   2.17213   2.17330
 Alpha virt. eigenvalues --    2.17831   2.18440   2.19189   2.19799   2.20184
 Alpha virt. eigenvalues --    2.20924   2.21300   2.21670   2.22407   2.22732
 Alpha virt. eigenvalues --    2.23488   2.23722   2.24551   2.25247   2.25417
 Alpha virt. eigenvalues --    2.25938   2.26114   2.26954   2.27216   2.27264
 Alpha virt. eigenvalues --    2.27557   2.28002   2.28173   2.28690   2.29170
 Alpha virt. eigenvalues --    2.29944   2.30282   2.30364   2.30946   2.31260
 Alpha virt. eigenvalues --    2.31531   2.32298   2.32427   2.32743   2.32937
 Alpha virt. eigenvalues --    2.33997   2.34444   2.34895   2.35784   2.36008
 Alpha virt. eigenvalues --    2.36672   2.37323   2.38224   2.39467   2.40086
 Alpha virt. eigenvalues --    2.41013   2.41167   2.41721   2.42043   2.42081
 Alpha virt. eigenvalues --    2.42703   2.44771   2.45263   2.45780   2.46324
 Alpha virt. eigenvalues --    2.46574   2.47363   2.47671   2.47846   2.48093
 Alpha virt. eigenvalues --    2.48824   2.48981   2.49492   2.49844   2.50059
 Alpha virt. eigenvalues --    2.50370   2.50615   2.50626   2.51814   2.52040
 Alpha virt. eigenvalues --    2.52986   2.53160   2.53260   2.53851   2.54735
 Alpha virt. eigenvalues --    2.54892   2.55636   2.55789   2.56262   2.56308
 Alpha virt. eigenvalues --    2.58388   2.58663   2.58697   2.58984   2.59648
 Alpha virt. eigenvalues --    2.61021   2.61634   2.61930   2.62366   2.62515
 Alpha virt. eigenvalues --    2.63116   2.63908   2.64269   2.64935   2.65506
 Alpha virt. eigenvalues --    2.65948   2.66445   2.67194   2.67287   2.67409
 Alpha virt. eigenvalues --    2.67555   2.69037   2.69830   2.71743   2.72028
 Alpha virt. eigenvalues --    2.72579   2.73333   2.74255   2.74327   2.74500
 Alpha virt. eigenvalues --    2.74939   2.75246   2.76692   2.76942   2.77493
 Alpha virt. eigenvalues --    2.77990   2.78279   2.78349   2.79079   2.79658
 Alpha virt. eigenvalues --    2.79931   2.80146   2.80452   2.80767   2.81458
 Alpha virt. eigenvalues --    2.81859   2.82198   2.82274   2.82922   2.83131
 Alpha virt. eigenvalues --    2.83212   2.84141   2.84544   2.85259   2.86718
 Alpha virt. eigenvalues --    2.87016   2.87706   2.88139   2.89000   2.89561
 Alpha virt. eigenvalues --    2.90277   2.91573   2.91763   2.92266   2.92853
 Alpha virt. eigenvalues --    2.93993   2.94782   2.94862   2.97395   2.97804
 Alpha virt. eigenvalues --    2.98361   2.99513   3.00309   3.03220   3.04271
 Alpha virt. eigenvalues --    3.05714   3.06067   3.07127   3.10972   3.11592
 Alpha virt. eigenvalues --    3.13113   3.13317   3.15171   3.16164   3.17363
 Alpha virt. eigenvalues --    3.18565   3.20119   3.22133   3.22699   3.23601
 Alpha virt. eigenvalues --    3.26810   3.26886   3.30672   3.31893   3.34178
 Alpha virt. eigenvalues --    3.34300   3.41156   3.41957   3.43214   3.46197
 Alpha virt. eigenvalues --    3.47059   3.49899   3.50077   3.51031   3.51156
 Alpha virt. eigenvalues --    3.52326   3.53079   3.53883   3.54557   3.55873
 Alpha virt. eigenvalues --    3.57243   3.57394   3.57662   3.58897   3.59983
 Alpha virt. eigenvalues --    3.61775   3.63369   3.64318   3.66574   3.68249
 Alpha virt. eigenvalues --    3.72674
          Condensed to atoms (all electrons):
 Mulliken charges:
               1
     1  S    0.075448
     2  C   -0.157100
     3  C   -0.151150
     4  C    0.104064
     5  N   -0.131416
     6  H    0.076096
     7  C    0.102740
     8  C    0.060407
     9  C    0.011019
    10  C    0.031655
    11  C    0.045061
    12  H   -0.021201
    13  H   -0.023064
    14  H   -0.020235
    15  H   -0.032080
    16  C    0.053153
    17  C    0.027709
    18  C    0.024783
    19  H   -0.026501
    20  C    0.023979
    21  H   -0.030919
    22  H   -0.028819
    23  C    0.034805
    24  C    0.014793
    25  C    0.014233
    26  C    0.097162
    27  H   -0.027297
    28  C    0.093157
    29  H   -0.024188
    30  C    0.073540
    31  H   -0.032837
    32  H   -0.031508
    33  N   -0.305214
    34  C    0.196611
    35  C    0.196992
    36  O   -0.191429
    37  O   -0.201808
    38  C   -0.084374
    39  C   -0.111690
    40  C    0.160210
    41  C    0.065421
    42  C    0.088090
    43  O   -0.258354
    44  C   -0.115880
    45  C    0.162158
    46  C   -0.084849
    47  H   -0.008286
    48  C    0.089344
    49  C    0.062173
    50  H   -0.008302
    51  O   -0.258690
    52  C    0.080337
    53  C    0.081389
    54  C   -0.014150
    55  H    0.060516
    56  H    0.012059
    57  H    0.042612
    58  H    0.025723
    59  H    0.029990
    60  C   -0.014170
    61  H    0.015094
    62  H    0.060816
    63  H    0.029107
    64  H    0.027039
    65  H    0.041238
    66  C    0.199779
    67  C    0.197835
    68  N   -0.311465
    69  O   -0.196668
    70  O   -0.192498
    71  C    0.095044
    72  C    0.091775
    73  C    0.090723
    74  C    0.087117
    75  C    0.091736
    76  C    0.094051
    77  H   -0.026943
    78  H   -0.025495
    79  H   -0.023305
    80  H   -0.021700
    81  N   -0.317222
    82  C    0.207262
    83  C    0.178210
    84  C   -0.137623
    85  C   -0.052468
    86  C    0.220103
    87  O   -0.174797
    88  O   -0.161451
    89  C    0.085086
    90  C    0.051808
    91  C   -0.051051
    92  H    0.006279
    93  C    0.222462
    94  C    0.051151
    95  C    0.088143
    96  C   -0.137482
    97  H    0.005810
    98  C   -0.121927
    99  N   -0.030234
   100  C   -0.121102
   101  N   -0.029650
   102  C    0.173875
   103  C    0.209450
   104  N   -0.283920
   105  O   -0.195100
   106  O   -0.181962
   107  C    0.071706
   108  H    0.063566
   109  H    0.057987
   110  H    0.057899
 Sum of Mulliken charges =  -0.00000
 Mulliken charges with hydrogens summed into heavy atoms:
               1
     1  S    0.075448
     2  C   -0.157100
     3  C   -0.151150
     4  C    0.104064
     5  N   -0.055320
     7  C    0.102740
     8  C    0.040172
     9  C   -0.021061
    10  C    0.008591
    11  C    0.023861
    16  C    0.026652
    17  C   -0.003210
    18  C    0.024783
    20  C   -0.004840
    23  C    0.034805
    24  C   -0.009395
    25  C   -0.013064
    26  C    0.065653
    28  C    0.060320
    30  C    0.073540
    33  N   -0.305214
    34  C    0.196611
    35  C    0.196992
    36  O   -0.191429
    37  O   -0.201808
    38  C   -0.084374
    39  C   -0.111690
    40  C    0.160210
    41  C    0.065421
    42  C    0.079804
    43  O   -0.258354
    44  C   -0.115880
    45  C    0.162158
    46  C   -0.084849
    48  C    0.081042
    49  C    0.062173
    51  O   -0.258690
    52  C    0.156246
    53  C    0.153963
    54  C    0.084174
    60  C    0.083214
    66  C    0.199779
    67  C    0.197835
    68  N   -0.311465
    69  O   -0.196668
    70  O   -0.192498
    71  C    0.095044
    72  C    0.064832
    73  C    0.065228
    74  C    0.087117
    75  C    0.068431
    76  C    0.072351
    81  N   -0.317222
    82  C    0.207262
    83  C    0.178210
    84  C   -0.137623
    85  C   -0.052468
    86  C    0.220103
    87  O   -0.174797
    88  O   -0.161451
    89  C    0.091365
    90  C    0.051808
    91  C   -0.051051
    93  C    0.222462
    94  C    0.051151
    95  C    0.093953
    96  C   -0.137482
    98  C   -0.121927
    99  N   -0.030234
   100  C   -0.121102
   101  N   -0.029650
   102  C    0.173875
   103  C    0.209450
   104  N   -0.283920
   105  O   -0.195100
   106  O   -0.181962
   107  C    0.251157
 APT charges:
               1
     1  S   -0.163493
     2  C    0.090954
     3  C    0.045234
     4  C    0.484409
     5  N   -1.017439
     6  H    0.163259
     7  C    0.592738
     8  C    0.005078
     9  C   -0.142545
    10  C   -0.142020
    11  C    0.017294
    12  H    0.023843
    13  H    0.022968
    14  H    0.053610
    15  H    0.027779
    16  C   -0.010921
    17  C   -0.153986
    18  C   -0.053798
    19  H    0.069938
    20  C   -0.020235
    21  H    0.011540
    22  H    0.048349
    23  C    0.240206
    24  C   -0.132797
    25  C   -0.129958
    26  C   -0.037749
    27  H    0.039422
    28  C   -0.037846
    29  H    0.035997
    30  C    0.385294
    31  H    0.039774
    32  H    0.039018
    33  N   -0.959971
    34  C    1.311713
    35  C    1.377964
    36  O   -0.848803
    37  O   -0.855807
    38  C   -0.396723
    39  C   -0.099426
    40  C   -0.122438
    41  C    0.695355
    42  C   -0.099420
    43  O   -1.028324
    44  C   -0.122778
    45  C   -0.119422
    46  C   -0.409717
    47  H    0.106229
    48  C   -0.122853
    49  C    0.709429
    50  H    0.107260
    51  O   -1.029467
    52  C    0.594859
    53  C    0.604499
    54  C    0.017175
    55  H    0.002287
    56  H   -0.048433
    57  H    0.006665
    58  H   -0.018679
    59  H   -0.008978
    60  C    0.019627
    61  H   -0.047331
    62  H    0.004969
    63  H   -0.010150
    64  H   -0.017642
    65  H    0.004908
    66  C    1.377647
    67  C    1.326975
    68  N   -0.958584
    69  O   -0.849851
    70  O   -0.852077
    71  C    0.471117
    72  C   -0.089903
    73  C   -0.067137
    74  C    0.413991
    75  C   -0.065394
    76  C   -0.090000
    77  H    0.042750
    78  H    0.041724
    79  H    0.042712
    80  H    0.047205
    81  N   -0.929922
    82  C    1.238616
    83  C    1.220596
    84  C   -0.129006
    85  C   -0.130174
    86  C   -0.121948
    87  O   -0.790072
    88  O   -0.755781
    89  C   -0.121320
    90  C    0.220298
    91  C   -0.125582
    92  H    0.118041
    93  C   -0.114759
    94  C    0.197871
    95  C   -0.101600
    96  C   -0.127047
    97  H    0.111760
    98  C    0.067810
    99  N   -0.245853
   100  C    0.083597
   101  N   -0.248584
   102  C    1.175344
   103  C    1.217097
   104  N   -0.899291
   105  O   -0.814458
   106  O   -0.751350
   107  C    0.287712
   108  H    0.080243
   109  H    0.003145
   110  H    0.002938
 Sum of APT charges =  -0.00001
 APT charges with hydrogens summed into heavy atoms:
               1
     1  S   -0.163493
     2  C    0.090954
     3  C    0.045234
     4  C    0.484409
     5  N   -0.854180
     7  C    0.592738
     8  C    0.058688
     9  C   -0.114766
    10  C   -0.119052
    11  C    0.041137
    16  C    0.059017
    17  C   -0.142446
    18  C   -0.053798
    20  C    0.028115
    23  C    0.240206
    24  C   -0.096800
    25  C   -0.090536
    26  C    0.001268
    28  C    0.001928
    30  C    0.385294
    33  N   -0.959971
    34  C    1.311713
    35  C    1.377964
    36  O   -0.848803
    37  O   -0.855807
    38  C   -0.396723
    39  C   -0.099426
    40  C   -0.122438
    41  C    0.695355
    42  C    0.006809
    43  O   -1.028324
    44  C   -0.122778
    45  C   -0.119422
    46  C   -0.409717
    48  C   -0.015593
    49  C    0.709429
    51  O   -1.029467
    52  C    0.552497
    53  C    0.558354
    54  C   -0.003818
    60  C   -0.003257
    66  C    1.377647
    67  C    1.326975
    68  N   -0.958584
    69  O   -0.849851
    70  O   -0.852077
    71  C    0.471117
    72  C   -0.047153
    73  C   -0.025413
    74  C    0.413991
    75  C   -0.022682
    76  C   -0.042795
    81  N   -0.929922
    82  C    1.238616
    83  C    1.220596
    84  C   -0.129006
    85  C   -0.130174
    86  C   -0.121948
    87  O   -0.790072
    88  O   -0.755781
    89  C   -0.003278
    90  C    0.220298
    91  C   -0.125582
    93  C   -0.114759
    94  C    0.197871
    95  C    0.010160
    96  C   -0.127047
    98  C    0.067810
    99  N   -0.245853
   100  C    0.083597
   101  N   -0.248584
   102  C    1.175344
   103  C    1.217097
   104  N   -0.899291
   105  O   -0.814458
   106  O   -0.751350
   107  C    0.374038
 Electronic spatial extent (au):  <R**2>=         189282.9890
 Charge=             -0.0000 electrons
 Dipole moment (field-independent basis, Debye):
    X=             -2.2292    Y=              1.9588    Z=             -0.1201  Tot=              2.9700
 Quadrupole moment (field-independent basis, Debye-Ang):
   XX=           -392.9153   YY=           -484.3189   ZZ=           -429.2066
   XY=            -55.5596   XZ=              0.9970   YZ=             26.6117
 Traceless Quadrupole moment (field-independent basis, Debye-Ang):
   XX=             42.5650   YY=            -48.8386   ZZ=              6.2737
   XY=            -55.5596   XZ=              0.9970   YZ=             26.6117
 Octapole moment (field-independent basis, Debye-Ang**2):
  XXX=           -972.8872  YYY=             14.5584  ZZZ=            -18.2273  XYY=           -457.9045
  XXY=            140.3949  XXZ=            273.1040  XZZ=            -77.6237  YZZ=             11.2973
  YYZ=            -11.8312  XYZ=            371.0296
 Hexadecapole moment (field-independent basis, Debye-Ang**3):
 XXXX=        -224186.8468 YYYY=         -11235.8719 ZZZZ=          -3810.6805 XXXY=         -13745.6358
 XXXZ=           1752.1492 YYYX=           -502.2819 YYYZ=            619.2341 ZZZX=            -40.5191
 ZZZY=            193.4724 XXYY=         -47886.7452 XXZZ=         -42665.6490 YYZZ=          -2493.1716
 XXYZ=           1467.6851 YYXZ=            -82.2484 ZZXY=            -27.7964
 N-N= 1.055524489579D+04 E-N=-2.997934175266D+04  KE= 3.779438695978D+03
  Exact polarizability:1232.064  10.534 708.456 -52.146 -77.998 450.788
 Approx polarizability:1107.274  12.4991003.199 -43.676-147.196 643.250
 Calling FoFJK, ICntrl=    100127 FMM=F ISym2X=0 I1Cent= 0 IOpClX= 0 NMat=1 NMatS=1 NMatT=0.
 Full mass-weighted force constant matrix:
 Low frequencies ---   -0.3565   -0.0043   -0.0012    0.0019    0.3953    0.8876
 Low frequencies ---    4.0479    4.7107    6.1509
 Diagonal vibrational polarizability:
      275.4725567     142.6004342     243.6122911
 Harmonic frequencies (cm**-1), IR intensities (KM/Mole), Raman scattering
 activities (A**4/AMU), depolarization ratios for plane and unpolarized
 incident light, reduced masses (AMU), force constants (mDyne/A),
 and normal coordinates:
                      1                      2                      3
                      A                      A                      A
 Frequencies --      4.0327                 4.6180                 6.1490
 Red. masses --      8.7779                 7.9038                 7.7844
 Frc consts  --      0.0001                 0.0001                 0.0002
 IR Inten    --      0.0010                 0.0379                 0.0260
  Atom  AN      X      Y      Z        X      Y      Z        X      Y      Z
     1  16     0.01  -0.00   0.12     0.01  -0.03  -0.01    -0.04   0.08   0.03
     2   6     0.02   0.01   0.13     0.02  -0.05   0.03    -0.02   0.12   0.03
     3   6     0.00  -0.01   0.07     0.00  -0.01   0.02    -0.02   0.05   0.01
     4   6     0.01  -0.00   0.11     0.01  -0.03   0.07    -0.00   0.12   0.02
     5   7    -0.01  -0.02   0.09    -0.01  -0.00   0.07     0.00   0.09   0.01
     6   1    -0.02  -0.03   0.08    -0.02   0.01   0.10     0.02   0.09  -0.00
     7   6    -0.01  -0.02   0.06    -0.01   0.00   0.06     0.00   0.06  -0.00
     8   6     0.04   0.03   0.16     0.03  -0.08   0.02    -0.03   0.15   0.05
     9   6     0.02   0.00   0.13     0.01  -0.05   0.10     0.01   0.15   0.02
    10   6     0.05   0.04   0.17     0.03  -0.09   0.05    -0.01   0.18   0.05
    11   6     0.03   0.02   0.15     0.02  -0.08   0.09     0.01   0.18   0.04
    12   1     0.04   0.03   0.16     0.02  -0.09   0.11     0.02   0.21   0.04
    13   1     0.06   0.05   0.19     0.04  -0.12   0.04    -0.02   0.20   0.06
    14   1     0.05   0.04   0.17     0.04  -0.09  -0.01    -0.04   0.15   0.06
    15   1     0.01  -0.00   0.11    -0.00  -0.04   0.13     0.03   0.15   0.01
    16   6     0.00  -0.01   0.05     0.00  -0.01   0.00    -0.02   0.02  -0.00
    17   6    -0.02  -0.03   0.03    -0.02   0.02   0.08     0.02   0.04  -0.02
    18   6    -0.00  -0.02   0.01    -0.00   0.01   0.03     0.00   0.00  -0.02
    19   1     0.01  -0.00   0.06     0.01  -0.02  -0.03    -0.03   0.02   0.01
    20   6    -0.01  -0.03   0.00    -0.02   0.02   0.06     0.02   0.01  -0.03
    21   1    -0.02  -0.04   0.02    -0.02   0.03   0.11     0.04   0.04  -0.03
    22   1    -0.02  -0.04  -0.02    -0.02   0.03   0.08     0.04  -0.01  -0.04
    23   6    -0.00  -0.02  -0.01    -0.00   0.01   0.01     0.00  -0.02  -0.02
    24   6     0.01   0.00  -0.01     0.01  -0.02  -0.01    -0.00  -0.03  -0.02
    25   6    -0.02  -0.03  -0.03    -0.02   0.04   0.02     0.01  -0.04  -0.03
    26   6    -0.02  -0.03  -0.05    -0.02   0.05   0.00     0.01  -0.06  -0.03
    27   1    -0.03  -0.05  -0.03    -0.03   0.07   0.03     0.01  -0.04  -0.03
    28   6     0.02   0.01  -0.03     0.01  -0.01  -0.03    -0.00  -0.05  -0.02
    29   1     0.03   0.02   0.00     0.02  -0.04  -0.02    -0.01  -0.02  -0.02
    30   6    -0.00  -0.01  -0.05    -0.00   0.02  -0.02     0.00  -0.06  -0.02
    31   1     0.03   0.02  -0.03     0.02  -0.04  -0.04    -0.01  -0.05  -0.02
    32   1    -0.03  -0.04  -0.07    -0.02   0.07   0.01     0.01  -0.07  -0.03
    33   7     0.00  -0.00  -0.07    -0.00   0.02  -0.03     0.00  -0.06  -0.02
    34   6     0.00  -0.00  -0.06     0.00   0.02  -0.07    -0.00  -0.06  -0.04
    35   6    -0.00   0.00  -0.09    -0.00   0.02  -0.01     0.00  -0.07   0.00
    36   8     0.00  -0.01  -0.05     0.00   0.03  -0.09    -0.00  -0.06  -0.06
    37   8    -0.00  -0.00  -0.10    -0.00   0.02   0.02     0.00  -0.07   0.02
    38   6    -0.00   0.01  -0.10    -0.00   0.01  -0.02     0.00  -0.07   0.01
    39   6     0.00   0.00  -0.07     0.00   0.03  -0.07    -0.00  -0.06  -0.04
    40   6     0.00   0.00  -0.08    -0.00   0.02  -0.05     0.00  -0.07  -0.01
    41   6    -0.00   0.01  -0.11    -0.00   0.01   0.01     0.00  -0.08   0.03
    42   6    -0.00   0.01  -0.11    -0.00   0.01   0.00     0.00  -0.08   0.03
    43   8    -0.00   0.01  -0.13    -0.00   0.00   0.03     0.00  -0.09   0.05
    44   6    -0.00   0.01  -0.10    -0.00   0.02  -0.02     0.00  -0.08   0.01
    45   6     0.00   0.01  -0.08    -0.00   0.02  -0.05     0.00  -0.07  -0.01
    46   6     0.00   0.00  -0.07     0.00   0.03  -0.08     0.00  -0.07  -0.03
    47   1    -0.00   0.01  -0.12    -0.00   0.01   0.02     0.00  -0.09   0.05
    48   6     0.00  -0.00  -0.06     0.00   0.03  -0.10    -0.00  -0.06  -0.06
    49   6     0.00  -0.00  -0.06     0.00   0.04  -0.11     0.00  -0.06  -0.05
    50   1     0.00  -0.00  -0.05     0.00   0.04  -0.12    -0.00  -0.06  -0.08
    51   8     0.00  -0.00  -0.05     0.00   0.05  -0.14    -0.00  -0.05  -0.08
    52   6     0.00   0.03  -0.12     0.00  -0.02   0.04    -0.00  -0.11   0.05
    53   6     0.01  -0.01  -0.05     0.01   0.08  -0.14     0.00  -0.04  -0.08
    54   6     0.01  -0.02  -0.04     0.01   0.10  -0.17     0.00  -0.02  -0.10
    55   1     0.01  -0.01  -0.04     0.01   0.07  -0.14     0.00  -0.04  -0.08
    56   1     0.01  -0.01  -0.06     0.01   0.09  -0.11     0.00  -0.02  -0.06
    57   1     0.01  -0.01  -0.03     0.01   0.08  -0.19    -0.00  -0.03  -0.12
    58   1     0.01  -0.02  -0.04     0.02   0.12  -0.17     0.00  -0.00  -0.10
    59   1     0.01  -0.02  -0.05     0.01   0.11  -0.17     0.00  -0.01  -0.10
    60   6     0.00   0.04  -0.14     0.00  -0.04   0.07    -0.00  -0.13   0.08
    61   1     0.01   0.03  -0.11     0.00  -0.04   0.02    -0.01  -0.12   0.03
    62   1    -0.00   0.02  -0.12    -0.00  -0.01   0.05    -0.00  -0.10   0.05
    63   1     0.01   0.05  -0.14     0.01  -0.05   0.06    -0.01  -0.14   0.08
    64   1     0.01   0.05  -0.14     0.01  -0.06   0.07    -0.01  -0.14   0.08
    65   1    -0.00   0.03  -0.15     0.00  -0.03   0.09    -0.00  -0.11   0.10
    66   6     0.00   0.01  -0.07    -0.00   0.03  -0.07     0.00  -0.07  -0.03
    67   6    -0.00   0.01  -0.09    -0.00   0.02  -0.02     0.00  -0.08   0.02
    68   7     0.00   0.01  -0.08    -0.00   0.02  -0.04     0.00  -0.07  -0.00
    69   8     0.00   0.01  -0.06    -0.00   0.03  -0.09    -0.00  -0.07  -0.05
    70   8    -0.00   0.01  -0.10    -0.00   0.02  -0.00     0.00  -0.08   0.03
    71   6    -0.00   0.01  -0.06    -0.00   0.02  -0.03     0.00  -0.07  -0.00
    72   6     0.01   0.02  -0.06     0.01  -0.00  -0.03     0.00  -0.07  -0.00
    73   6     0.01   0.02  -0.04     0.01  -0.01  -0.02     0.00  -0.06  -0.00
    74   6    -0.00   0.00  -0.03    -0.00   0.01  -0.01     0.00  -0.05  -0.00
    75   6    -0.02  -0.01  -0.03    -0.01   0.04  -0.02    -0.00  -0.06  -0.00
    76   6    -0.02  -0.01  -0.05    -0.01   0.04  -0.03    -0.00  -0.07  -0.00
    77   1     0.02   0.04  -0.06     0.01  -0.02  -0.03     0.00  -0.07  -0.00
    78   1     0.02   0.03  -0.03     0.01  -0.03  -0.01     0.00  -0.05  -0.00
    79   1    -0.03  -0.03  -0.03    -0.02   0.05  -0.02    -0.00  -0.05  -0.00
    80   1    -0.03  -0.02  -0.06    -0.01   0.06  -0.04    -0.00  -0.07  -0.00
    81   7    -0.00   0.00  -0.01    -0.00   0.00  -0.00     0.00  -0.03  -0.00
    82   6     0.01   0.02   0.03     0.01  -0.03  -0.04    -0.02  -0.02  -0.01
    83   6    -0.01  -0.02  -0.03    -0.01   0.03   0.05     0.02  -0.01   0.01
    84   6     0.00   0.02   0.05     0.01  -0.03  -0.03    -0.01   0.01  -0.01
    85   6    -0.01  -0.02  -0.01    -0.01   0.02   0.06     0.02   0.02   0.02
    86   6    -0.01  -0.00   0.03    -0.00  -0.01   0.02     0.00   0.03   0.01
    87   8     0.01   0.03   0.05     0.02  -0.05  -0.09    -0.03  -0.04  -0.03
    88   8    -0.02  -0.03  -0.07    -0.02   0.05   0.08     0.04  -0.02   0.02
    89   6     0.01   0.03   0.09     0.02  -0.06  -0.07    -0.03   0.02  -0.02
    90   6     0.01   0.03   0.12     0.02  -0.07  -0.06    -0.03   0.04  -0.01
    91   6     0.00   0.01   0.10     0.01  -0.05  -0.01    -0.01   0.06   0.00
    92   1     0.02   0.04   0.11     0.03  -0.08  -0.11    -0.05  -0.00  -0.03
    93   6    -0.01  -0.00   0.06    -0.00  -0.02   0.03     0.00   0.06   0.01
    94   6    -0.02  -0.04  -0.03    -0.03   0.04   0.12     0.04   0.04   0.03
    95   6    -0.03  -0.04  -0.00    -0.03   0.04   0.13     0.04   0.07   0.04
    96   6    -0.02  -0.02   0.04    -0.02   0.01   0.09     0.02   0.08   0.03
    97   1    -0.03  -0.05  -0.02    -0.04   0.05   0.17     0.05   0.08   0.05
    98   6     0.02   0.05   0.16     0.03  -0.10  -0.10    -0.05   0.05  -0.02
    99   7     0.03   0.07   0.20     0.04  -0.13  -0.15    -0.07   0.05  -0.03
   100   6    -0.03  -0.05  -0.07    -0.04   0.08   0.16     0.06   0.03   0.04
   101   7    -0.04  -0.07  -0.11    -0.05   0.10   0.20     0.07   0.03   0.05
   102   6     0.00   0.01   0.13     0.01  -0.06   0.01    -0.01   0.09   0.01
   103   6    -0.02  -0.02   0.06    -0.02  -0.00   0.10     0.02   0.10   0.04
   104   7    -0.01  -0.00   0.10    -0.00  -0.03   0.06     0.00   0.11   0.03
   105   8    -0.03  -0.04   0.04    -0.03   0.02   0.15     0.04   0.12   0.05
   106   8     0.01   0.03   0.16     0.02  -0.08  -0.03    -0.03   0.10   0.00
   107   6    -0.01  -0.00   0.13    -0.01  -0.04   0.07     0.00   0.14   0.03
   108   1    -0.02  -0.02   0.11    -0.02  -0.02   0.11     0.02   0.15   0.05
   109   1    -0.02  -0.02   0.16    -0.00  -0.02   0.03    -0.02   0.15   0.02
   110   1     0.01   0.03   0.14     0.00  -0.09   0.07     0.01   0.14   0.03
                      4                      5                      6
                      A                      A                      A
 Frequencies --      9.9010                13.8692                16.6380
 Red. masses --      6.2015                 6.7837                 7.8674
 Frc consts  --      0.0004                 0.0008                 0.0013
 IR Inten    --      0.2385                 0.1829                 0.2155
  Atom  AN      X      Y      Z        X      Y      Z        X      Y      Z
     1  16    -0.00  -0.00   0.12     0.02  -0.00   0.11     0.08  -0.02   0.10
     2   6    -0.00   0.04   0.06    -0.01   0.00   0.00     0.05  -0.04   0.05
     3   6     0.00  -0.04   0.02     0.01  -0.01   0.04     0.03  -0.01   0.02
     4   6     0.00  -0.01  -0.03    -0.01  -0.05  -0.08     0.01  -0.09  -0.01
     5   7     0.00  -0.08  -0.07     0.01  -0.09  -0.09    -0.01  -0.11  -0.04
     6   1     0.00  -0.11  -0.14     0.01  -0.12  -0.15    -0.03  -0.14  -0.08
     7   6     0.00  -0.08  -0.07     0.01  -0.06  -0.04    -0.01  -0.06  -0.04
     8   6    -0.00   0.11   0.11    -0.03   0.04   0.01     0.07  -0.01   0.08
     9   6     0.00   0.02  -0.07    -0.04  -0.05  -0.16    -0.01  -0.11  -0.04
    10   6     0.00   0.14   0.07    -0.06   0.03  -0.07     0.05  -0.04   0.06
    11   6     0.00   0.09  -0.02    -0.06  -0.01  -0.15     0.01  -0.09  -0.01
    12   1     0.00   0.11  -0.05    -0.08  -0.02  -0.21    -0.00  -0.10  -0.03
    13   1    -0.00   0.20   0.10    -0.07   0.07  -0.06     0.07  -0.02   0.08
    14   1    -0.00   0.15   0.18    -0.03   0.08   0.08     0.10   0.02   0.13
    15   1     0.00  -0.02  -0.14    -0.04  -0.09  -0.23    -0.04  -0.14  -0.09
    16   6     0.00  -0.03   0.02     0.01   0.01   0.08     0.03   0.04   0.02
    17   6     0.00  -0.11  -0.14     0.00  -0.07  -0.08    -0.04  -0.06  -0.09
    18   6     0.00  -0.07  -0.05     0.01  -0.00   0.03    -0.00   0.04  -0.03
    19   1    -0.00  -0.00   0.09     0.01   0.04   0.14     0.06   0.07   0.07
    20   6     0.00  -0.11  -0.13     0.00  -0.05  -0.05    -0.04  -0.01  -0.09
    21   1     0.00  -0.14  -0.21    -0.00  -0.11  -0.15    -0.07  -0.10  -0.14
    22   1     0.00  -0.13  -0.19    -0.00  -0.06  -0.08    -0.07  -0.01  -0.13
    23   6     0.00  -0.06  -0.04     0.00   0.02   0.06    -0.00   0.08  -0.03
    24   6    -0.00   0.00  -0.01    -0.00   0.07   0.09     0.01   0.13  -0.01
    25   6     0.01  -0.11  -0.07     0.01  -0.03   0.04    -0.01   0.05  -0.05
    26   6     0.01  -0.10  -0.05     0.01  -0.02   0.06    -0.01   0.06  -0.06
    27   1     0.01  -0.16  -0.09     0.02  -0.08   0.02    -0.02   0.01  -0.06
    28   6    -0.00   0.01  -0.00    -0.00   0.08   0.10     0.01   0.15  -0.02
    29   1    -0.01   0.05   0.01    -0.01   0.11   0.10     0.01   0.16   0.01
    30   6     0.00  -0.04  -0.02     0.00   0.03   0.08    -0.00   0.11  -0.04
    31   1    -0.01   0.06   0.02    -0.01   0.12   0.13     0.01   0.18  -0.00
    32   1     0.01  -0.14  -0.07     0.02  -0.06   0.04    -0.02   0.04  -0.07
    33   7     0.00  -0.02  -0.01     0.00   0.02   0.09    -0.00   0.09  -0.05
    34   6     0.01  -0.02  -0.02    -0.01   0.02   0.08    -0.02   0.08  -0.07
    35   6    -0.01  -0.02   0.01     0.01   0.02   0.08     0.02   0.08  -0.04
    36   8     0.02  -0.02  -0.04    -0.01   0.02   0.09    -0.04   0.10  -0.09
    37   8    -0.03  -0.03   0.01     0.01   0.02   0.10     0.03   0.09  -0.05
    38   6    -0.02  -0.01   0.02     0.01   0.02   0.05     0.01   0.05  -0.03
    39   6     0.01   0.00  -0.01    -0.01   0.02   0.05    -0.02   0.05  -0.05
    40   6    -0.00   0.00   0.01     0.00   0.01   0.03    -0.00   0.04  -0.03
    41   6    -0.03  -0.00   0.04     0.02   0.01   0.04     0.03   0.03  -0.00
    42   6    -0.03   0.01   0.05     0.02   0.01   0.00     0.03   0.00   0.03
    43   8    -0.04  -0.01   0.06     0.03   0.01   0.05     0.05   0.04  -0.01
    44   6    -0.01   0.02   0.04     0.01   0.01  -0.02     0.01  -0.01   0.03
    45   6    -0.00   0.02   0.01     0.00   0.01  -0.00    -0.01   0.01  -0.00
    46   6     0.01   0.03  -0.00    -0.01   0.01  -0.02    -0.03  -0.00  -0.00
    47   1    -0.04   0.02   0.07     0.03   0.01  -0.01     0.05  -0.01   0.05
    48   6     0.03   0.01  -0.03    -0.02   0.01   0.03    -0.04   0.05  -0.06
    49   6     0.03   0.03  -0.02    -0.02   0.01  -0.00    -0.04   0.02  -0.04
    50   1     0.04   0.01  -0.04    -0.02   0.02   0.05    -0.06   0.06  -0.08
    51   8     0.04   0.04  -0.04    -0.03   0.01  -0.02    -0.06   0.01  -0.05
    52   6    -0.06  -0.04   0.05     0.06   0.01   0.07     0.04   0.06  -0.02
    53   6     0.05   0.07  -0.04    -0.06   0.01  -0.04    -0.05   0.02  -0.04
    54   6     0.07   0.08  -0.06    -0.09   0.02  -0.04    -0.07   0.05  -0.07
    55   1     0.05   0.07  -0.04    -0.05   0.00  -0.07    -0.06  -0.02  -0.03
    56   1     0.05   0.08  -0.02    -0.07   0.02  -0.04    -0.02   0.03  -0.01
    57   1     0.07   0.07  -0.08    -0.08   0.02  -0.04    -0.11   0.04  -0.10
    58   1     0.08   0.10  -0.06    -0.11   0.02  -0.06    -0.07   0.05  -0.07
    59   1     0.07   0.07  -0.06    -0.10   0.03  -0.01    -0.06   0.09  -0.08
    60   6    -0.09  -0.05   0.07     0.08   0.01   0.07     0.04   0.05  -0.02
    61   1    -0.06  -0.05   0.03     0.07   0.01   0.07     0.01   0.06  -0.03
    62   1    -0.06  -0.05   0.04     0.05   0.02   0.09     0.05   0.07  -0.04
    63   1    -0.09  -0.04   0.08     0.09   0.00   0.05     0.03   0.03   0.00
    64   1    -0.10  -0.07   0.06     0.09   0.00   0.08     0.04   0.06  -0.03
    65   1    -0.09  -0.04   0.09     0.07   0.01   0.07     0.07   0.05  -0.01
    66   6     0.01   0.05   0.01    -0.00   0.00  -0.06    -0.03  -0.03   0.02
    67   6    -0.01   0.04   0.04     0.01   0.00  -0.05     0.01  -0.04   0.06
    68   7     0.00   0.05   0.03     0.00   0.00  -0.06    -0.01  -0.05   0.05
    69   8     0.02   0.05  -0.01    -0.01   0.00  -0.08    -0.05  -0.05   0.01
    70   8    -0.03   0.04   0.06     0.02  -0.00  -0.06     0.03  -0.06   0.09
    71   6     0.00   0.06   0.03     0.00  -0.01  -0.07    -0.01  -0.08   0.06
    72   6     0.00   0.07   0.03    -0.00  -0.01  -0.08    -0.01  -0.08   0.06
    73   6     0.00   0.07   0.03    -0.00  -0.02  -0.08    -0.01  -0.08   0.07
    74   6     0.00   0.06   0.03     0.00  -0.02  -0.09    -0.01  -0.09   0.07
    75   6    -0.00   0.06   0.03     0.01  -0.02  -0.08    -0.01  -0.10   0.07
    76   6    -0.00   0.06   0.03     0.01  -0.01  -0.08    -0.01  -0.09   0.07
    77   1     0.00   0.08   0.02    -0.01  -0.01  -0.07    -0.01  -0.06   0.06
    78   1     0.00   0.08   0.03    -0.01  -0.02  -0.09    -0.01  -0.07   0.06
    79   1    -0.00   0.05   0.03     0.02  -0.02  -0.09    -0.01  -0.10   0.07
    80   1    -0.00   0.05   0.03     0.02  -0.01  -0.07    -0.01  -0.10   0.07
    81   7     0.00   0.05   0.03     0.00  -0.03  -0.09    -0.01  -0.07   0.06
    82   6     0.01   0.04   0.03     0.01  -0.03  -0.09    -0.03  -0.05   0.06
    83   6    -0.01   0.04   0.02    -0.00  -0.03  -0.08     0.02  -0.05   0.06
    84   6     0.01   0.02   0.02     0.01  -0.02  -0.06    -0.03  -0.03   0.04
    85   6    -0.01   0.02   0.01    -0.00  -0.02  -0.04     0.02  -0.03   0.03
    86   6     0.00   0.00   0.01     0.00  -0.01  -0.03    -0.01  -0.02   0.02
    87   8     0.02   0.05   0.04     0.02  -0.04  -0.11    -0.05  -0.06   0.07
    88   8    -0.02   0.05   0.03    -0.01  -0.03  -0.09     0.04  -0.06   0.07
    89   6     0.02   0.01   0.01     0.01  -0.02  -0.05    -0.06  -0.02   0.03
    90   6     0.02  -0.02  -0.00     0.01  -0.01  -0.01    -0.05   0.00   0.00
    91   6     0.01  -0.03  -0.02     0.01   0.00   0.02    -0.03   0.01  -0.01
    92   1     0.03   0.02   0.02     0.02  -0.03  -0.07    -0.08  -0.02   0.04
    93   6     0.00  -0.02  -0.01     0.00   0.00   0.01    -0.00  -0.00  -0.00
    94   6    -0.02   0.00   0.00    -0.01  -0.01  -0.02     0.04  -0.02   0.02
    95   6    -0.02  -0.02  -0.02    -0.01   0.01   0.02     0.05  -0.00  -0.00
    96   6    -0.01  -0.03  -0.02    -0.01   0.01   0.03     0.02   0.01  -0.01
    97   1    -0.03  -0.03  -0.02    -0.02   0.02   0.04     0.07   0.01  -0.01
    98   6     0.04  -0.03  -0.01     0.02  -0.01  -0.00    -0.08   0.01  -0.01
    99   7     0.05  -0.03  -0.01     0.02  -0.01   0.00    -0.11   0.02  -0.01
   100   6    -0.03   0.01   0.01    -0.02  -0.01  -0.03     0.07  -0.03   0.03
   101   7    -0.05   0.02   0.01    -0.02  -0.01  -0.04     0.09  -0.04   0.04
   102   6     0.01  -0.06  -0.03     0.00   0.02   0.07    -0.03   0.03  -0.04
   103   6    -0.01  -0.06  -0.04    -0.01   0.03   0.08     0.02   0.03  -0.04
   104   7     0.00  -0.07  -0.05    -0.00   0.03   0.09    -0.00   0.04  -0.05
   105   8    -0.02  -0.07  -0.05    -0.01   0.04   0.11     0.05   0.04  -0.05
   106   8     0.02  -0.07  -0.04     0.01   0.02   0.08    -0.05   0.04  -0.05
   107   6     0.00  -0.10  -0.07    -0.00   0.05   0.14     0.00   0.06  -0.08
   108   1    -0.01  -0.10  -0.07    -0.01   0.06   0.16     0.02   0.06  -0.09
   109   1     0.03  -0.11  -0.07    -0.03   0.06   0.14    -0.00   0.06  -0.08
   110   1    -0.01  -0.10  -0.07     0.03   0.05   0.15    -0.02   0.07  -0.09
                      7                      8                      9
[...]
 5,0.00001674,-0.00003682,-0.00000483,0.00001870,0.00002367,0.00000027,
 -0.00000382,0.00000183,0.00000189,0.00000425,0.00000254,-0.00000446,-0
 .00000741,-0.00147273,0.00054307,-0.00092181,-0.00105607,-0.00075833,0
 .00060476,0.00094165,0.00457581,-0.00471218,0.00132845,0.00031930,-0.0
 0067138,-0.00015257,-0.00022686,-0.00036999,0.07040754,-0.23714381,0.1
 1465427,0.00716191,-0.01550359,0.01394425,-0.07641898,0.24778316,0.000
 00016,-0.00000005,-0.00000006,-0.00000015,-0.00000024,-0.00000010,0.,0
 .00000043,0.00000021,-0.00000037,0.00000040,0.00000043,0.00000088,-0.0
 0000023,-0.00000026,-0.00000002,0.,0.,-0.00000070,-0.00000019,-0.00000
 005,0.00000005,0.00000009,0.00000005,0.00000016,-0.00000001,-0.0000000
 8,0.00000005,-0.00000002,-0.00000004,0.,0.,0.00000003,0.00000002,0.000
 00002,0.,0.00000003,0.,-0.00000002,-0.00000003,0.,0.00000001,-0.000000
 02,-0.00000001,0.,0.00000002,0.,0.00000005,0.00000013,-0.00000014,-0.0
 0000007,-0.00000008,-0.00000006,-0.00000006,-0.00000007,0.00000004,0.0
 0000003,0.00000006,0.00000001,-0.00000007,0.,0.00000002,0.00000002,-0.
 00000002,-0.00000006,0.,-0.00000027,-0.00000001,-0.00000002,0.00000011
 ,0.,0.00000007,0.00000018,-0.00000004,-0.00000008,0.00000012,0.0000000
 4,0.,-0.00000001,0.00000003,0.00000004,0.00000021,0.00000003,0.0000001
 3,0.00000007,0.,-0.00000005,-0.00000108,-0.00000005,-0.00000002,-0.000
 00009,0.00000005,0.00000009,-0.00000003,-0.00000001,-0.00000011,0.0000
 0132,-0.00000069,0.00000006,-0.00000255,0.00000066,0.00000004,-0.00000
 301,0.00000080,-0.00000018,0.00000164,-0.00000107,-0.00000002,0.000001
 44,0.00000026,-0.00000005,0.00000176,0.00000022,-0.00000022,0.00000111
 ,0.00000113,-0.00000034,0.00000039,-0.00000075,0.00000022,-0.00000053,
 -0.00000101,0.00000047,-0.00000007,-0.00000060,0.00000011,0.00000122,0
 .00000078,-0.00000115,0.00000145,0.00000145,-0.00000044,0.00000052,-0.
 00000049,0.00000006,0.00000249,-0.00000111,0.00000023,-0.00000038,-0.0
 0000011,0.00000018,-0.00000097,-0.00000051,0.00000042,0.00000100,0.000
 00301,-0.00000042,0.,0.00000007,0.00000006,-0.00000102,-0.00000278,0.0
 0000063,-0.00000089,-0.00000025,0.00000116,0.00000041,0.00000093,-0.00
 000068,0.00000006,0.00000006,0.00000009,-0.00000010,0.00000041,0.,-0.0
 0000022,-0.00000029,-0.00000005,0.00000013,-0.00000016,-0.00000012,-0.
 00000003,0.00000005,0.00000012,0.00000008,-0.00000006,0.00000006,0.000
 00002,0.00000008,-0.00000005,0.00000003,-0.00000011,-0.00000005,0.0000
 0010,0.00000002,-0.00000004,-0.00000007,0.00000004,0.00000014,0.000000
 15,0.00000006,-0.00000010,-0.00000011,-0.00000007,-0.00000002,-0.00000
 612,0.00000617,-0.00000138,-0.00000575,-0.00000135,0.00000097,0.000004
 76,-0.00000201,0.00000009,0.00000279,-0.00000247,0.00000021,0.00000410
 ,-0.00000049,-0.00000038,-0.00000402,0.00000006,0.00000023,0.00000059,
 0.00000032,-0.00000055,0.00000288,0.00000067,-0.00000136,-0.00001509,-
 0.00000203,-0.00000142,0.00000382,-0.00000099,0.00000254,0.00000033,-0
 .00000046,-0.00000014,0.00000052,0.00000028,0.00000038,-0.00000066,0.0
 0000113,-0.00000135,-0.00000073,-0.00000013,0.00000131,0.00000084,0.00
 000025,-0.00000014,0.00001899,-0.00002326,-0.00001284,-0.00007003,0.00
 001879,0.00001147,-0.00001976,0.00001805,0.00000836,0.00003913,-0.0000
 1443,0.00000118,0.00000947,0.00001180,0.00001565,0.00006784,0.00000774
 ,-0.00004010,0.00002844,0.00000030,0.00000111,0.00001994,-0.00001841,-
 0.00001129,-0.00001124,-0.00001331,-0.00001227,-0.00000295,0.00001984,
 0.00000988,0.00029433,-0.00004275,-0.00015463,-0.00000140,0.00000201,0
 .00000036,0.00001582,-0.00001085,0.00010279,-0.00000939,-0.00001554,0.
 00000703,0.00006533,-0.00003433,0.00000797,0.00004866,-0.00010573,-0.0
 0015460,0.00000621,0.00000806,-0.00000277,-0.00009027,-0.00004108,-0.0
 0002725,0.00004626,0.00002715,0.00002363,0.00000472,0.00000048,0.00000
 202,-0.00000093,-0.00000608,-0.00000520,-0.00143492,0.00276981,0.00166
 477,0.00063757,-0.00120327,-0.00038371,-0.00184052,-0.00372727,0.00186
 734,0.00077358,0.00032564,-0.00049458,0.00215334,-0.00074496,-0.000151
 81,-0.04171091,0.11256793,-0.11367321,0.00622701,-0.01206064,0.0095564
 8,0.04352336,-0.12189512,0.11520324,-0.00000042,0.00000010,0.00000018,
 0.00000052,0.00000064,0.00000013,-0.00000015,-0.00000118,-0.00000056,0
 .00000075,-0.00000114,-0.00000095,-0.00000260,0.00000064,0.00000039,0.
 00000009,0.00000003,0.00000015,0.00000217,0.00000037,0.00000014,-0.000
 00012,-0.00000017,-0.00000012,-0.00000031,0.00000007,0.00000015,-0.000
 00018,0.,0.00000005,-0.00000002,0.00000005,-0.00000003,-0.00000006,-0.
 00000004,0.00000004,-0.00000004,0.00000001,0.00000006,0.00000009,-0.00
 000001,0.,0.00000005,-0.00000003,0.,-0.00000010,0.00000009,-0.00000015
 ,-0.00000051,0.00000050,0.00000021,0.00000032,0.00000001,0.00000007,0.
 00000020,-0.00000016,-0.00000006,-0.00000015,0.00000008,0.00000024,-0.
 00000013,-0.00000009,-0.00000003,0.00000014,0.00000018,0.00000007,0.00
 000092,0.00000007,0.00000008,-0.00000046,-0.00000009,-0.00000033,-0.00
 000044,0.00000005,0.00000025,-0.00000058,-0.00000004,0.00000018,-0.000
 00011,-0.00000006,-0.00000018,-0.00000051,0.00000002,-0.00000025,-0.00
 000011,0.00000005,0.00000016,0.00000355,0.00000010,0.00000019,0.000000
 21,-0.00000012,-0.00000031,0.00000018,0.00000011,0.00000034,-0.0000043
 1,-0.00000026,-0.00000021,0.00000874,0.00000077,0.00000008,0.00000906,
 0.00000017,0.00000091,-0.00000496,0.00000165,-0.00000025,-0.00000502,-
 0.00000249,-0.00000033,-0.00000489,-0.00000072,0.00000025,-0.00000368,
 -0.00000288,0.00000073,-0.00000115,0.00000193,-0.00000047,0.00000314,0
 .00000497,-0.00000147,-0.00000098,0.00000157,-0.00000036,-0.00000456,-
 0.00000486,0.00000300,-0.00000415,-0.00000406,0.00000120,-0.00000138,0
 .00000176,-0.00000019,-0.00000766,0.00000264,-0.00000094,0.00000101,0.
 00000069,0.,0.00000164,0.00000091,-0.00000090,-0.00000049,-0.00000549,
 0.00000085,0.00000015,-0.00000004,0.00000009,0.00000065,0.00000439,-0.
 00000170,0.00000286,0.00000134,-0.00000296,0.00000043,-0.00000147,0.00
 000219,-0.00000033,-0.00000009,-0.00000005,0.00000008,-0.00000091,0.00
 000011,0.00000039,0.00000030,0.00000012,-0.00000003,0.00000019,0.00000
 015,0.00000027,0.00000005,-0.00000006,-0.00000058,0.00000008,-0.000000
 19,0.00000004,0.,0.00000043,-0.00000004,-0.00000012,0.00000018,-0.0000
 0038,0.00000001,0.00000011,0.,0.,-0.00000027,-0.00000024,-0.00000013,0
 .00000033,0.00000022,-0.00000005,-0.00000015,0.00001924,-0.00001051,0.
 00000460,0.00001672,0.00001249,-0.00000279,-0.00001464,-0.00000066,-0.
 00000075,-0.00001101,0.00000223,-0.00000181,-0.00000978,-0.00000398,-0
 .00000022,0.00001261,0.00000004,0.00000093,-0.00000192,-0.00000147,-0.
 00000033,-0.00001006,-0.00000258,0.00000560,0.00004106,-0.00000252,0.0
 0000088,-0.00000834,0.00000155,-0.00000436,-0.00000193,0.00000177,-0.0
 0000130,-0.00000204,0.00000013,-0.00000108,0.00000183,-0.00000068,0.00
 000335,0.00000238,0.00000177,-0.00000368,-0.00000160,0.00000009,0.0000
 0084,-0.00005511,-0.00003966,-0.00002355,0.00005411,0.00003470,0.00000
 922,0.00015426,0.00004153,0.00001701,-0.00002577,-0.00000412,-0.000023
 23,-0.00009544,0.00000964,-0.00001902,0.00005315,-0.00007395,0.0001207
 0,-0.00004802,-0.00003560,-0.00002252,-0.00007070,0.00000463,0.0000020
 3,-0.00004783,-0.00004507,0.00004727,0.00004704,0.00011505,-0.00002147
 ,-0.00019431,0.00034452,-0.00052479,-0.00000143,-0.00000191,0.00000575
 ,0.00000277,0.00008200,0.00004312,-0.00004025,-0.00000901,0.00009502,-
 0.00026532,-0.00010776,-0.00016204,-0.00025679,0.00136020,-0.00048332,
 0.00001862,0.00000899,-0.00003732,-0.00001419,-0.00002973,-0.00003008,
 0.00001780,-0.00000996,-0.00001059,-0.00002762,-0.00001578,0.00000210,
 -0.00000251,0.00002173,0.00000868,-0.00029604,0.00439244,0.00310507,-0
 .00286934,-0.00608853,-0.00112750,-0.02682486,0.00259422,0.03206771,0.
 00164718,0.00080008,0.00114387,0.00164548,-0.00162114,-0.00116147,-0.0
 7717208,0.00161853,0.08389261,0.00418827,0.00210042,-0.00932464,0.0044
 8584,-0.00102142,-0.00878064,0.09597453,0.00000036,-0.00000008,-0.0000
 0012,-0.00000035,-0.00000054,-0.00000016,0.00000005,0.00000095,0.00000
 048,-0.00000071,0.00000091,0.00000083,0.00000208,-0.00000054,-0.000000
 38,-0.00000007,0.00000002,-0.00000011,-0.00000169,-0.00000035,-0.00000
 013,0.00000011,0.00000015,0.00000011,0.00000031,-0.00000007,-0.0000001
 3,0.00000013,-0.00000004,-0.00000004,0.00000002,-0.00000003,0.00000006
 ,0.00000004,0.00000005,-0.00000004,0.00000003,0.,-0.00000007,-0.000000
 08,0.00000001,0.,-0.00000005,0.00000002,-0.00000002,0.00000005,-0.0000
 0004,0.00000013,0.00000035,-0.00000038,-0.00000014,-0.00000021,-0.0000
 0009,-0.00000010,-0.00000015,0.00000012,0.00000003,0.00000014,0.,-0.00
 000014,0.00000006,0.00000007,0.00000001,-0.00000008,-0.00000013,-0.000
 00007,-0.00000071,-0.00000004,-0.00000005,0.00000033,0.,0.00000023,0.0
 0000038,-0.00000009,-0.00000017,0.00000033,0.00000004,-0.00000007,0.00
 000004,0.00000009,0.00000011,0.00000038,-0.00000002,0.00000021,0.00000
 009,0.,-0.00000014,-0.00000246,-0.00000012,-0.00000013,-0.00000016,0.0
 0000014,0.00000019,-0.00000011,-0.00000002,-0.00000026,0.00000298,-0.0
 0000131,0.00000033,-0.00000562,0.00000105,-0.00000023,-0.00000671,0.00
 000160,-0.00000073,0.00000360,-0.00000208,0.00000026,0.00000327,0.0000
 0069,0.00000029,0.00000376,0.00000043,-0.00000028,0.00000230,0.0000025
 2,-0.00000071,0.00000086,-0.00000169,0.00000042,-0.00000088,-0.0000017
 0,0.00000071,-0.00000036,-0.00000131,0.00000045,0.00000208,0.00000120,
 -0.00000154,0.00000294,0.00000306,-0.00000094,0.00000111,-0.00000118,0
 .00000014,0.00000527,-0.00000213,0.00000052,-0.00000078,-0.00000028,0.
 00000010,-0.00000214,-0.00000115,0.00000098,0.00000221,0.00000653,-0.0
 0000111,-0.00000002,0.00000014,-0.00000002,-0.00000263,-0.00000612,0.0
 0000235,-0.00000146,-0.00000040,0.00000150,0.00000124,0.00000204,-0.00
 000255,0.00000021,0.00000005,0.00000014,-0.00000020,0.00000080,-0.0000
 0009,-0.00000041,-0.00000045,-0.00000001,0.00000025,-0.00000023,-0.000
 00026,-0.00000017,0.00000003,0.00000033,0.00000026,-0.00000012,0.00000
 010,-0.00000013,0.00000002,-0.00000015,-0.00000002,-0.00000007,-0.0000
 0008,0.00000021,0.00000004,-0.00000002,0.00000005,0.00000010,0.0000002
 3,0.00000019,0.00000005,-0.00000019,-0.00000019,-0.00000007,0.,-0.0000
 1279,0.00001132,-0.00000333,-0.00001161,-0.00000305,0.00000122,0.00000
 952,-0.00000359,0.00000095,0.00000597,-0.00000421,0.00000129,0.0000080
 6,-0.00000073,0.00000029,-0.00000831,0.00000010,-0.00000047,0.00000109
 ,0.00000057,-0.00000029,0.00000531,0.00000122,-0.00000257,-0.00002476,
 -0.00000113,-0.00000232,0.00000486,-0.00000139,0.00000250,0.00000120,-
 0.00000103,0.00000080,0.00000107,0.00000037,0.00000076,-0.00000115,0.0
 0000160,-0.00000199,-0.00000133,-0.00000045,0.00000222,0.00000086,0.00
 000030,-0.00000053,0.00002861,-0.00001295,-0.00000443,-0.00007438,0.00
 001594,0.00000113,-0.00006122,0.00000900,-0.00000404,0.00002425,-0.000
 01426,-0.00001357,0.00003116,0.00001887,0.00000545,0.00010615,-0.00004
 552,0.00005477,0.00003705,0.00000600,0.00000760,0.00003838,-0.00002176
 ,-0.00000791,-0.00001418,-0.00000534,0.00000546,0.,-0.00001736,0.00002
 035,0.00035563,0.00014892,-0.00028042,-0.00000124,0.00000102,0.0000012
 8,-0.00002637,0.00000780,0.00003668,-0.00001456,0.00000774,-0.00001426
 ,0.00007465,-0.00000920,0.00000804,0.00013114,-0.00007239,-0.00026672,
 -0.00000487,0.00001320,0.00001049,-0.00009532,-0.00002770,-0.00002884,
 0.00005146,0.00002646,0.00001323,0.00000584,0.00000446,-0.00000068,0.0
 0000044,-0.00001159,-0.00000235,-0.00200708,0.00211899,0.00157972,0.00
 011114,-0.00058423,-0.00117092,-0.00035523,-0.00119491,-0.00115573,0.0
 0125116,-0.00048318,0.00081918,0.00171477,-0.00066968,-0.00035488,0.00
 225727,-0.04622770,-0.00660994,0.01019084,0.00322042,-0.02301624,-0.00
 932034,0.00082170,0.02418046,-0.00442262,0.04297729,0.00000028,-0.0000
 0007,-0.00000007,-0.00000035,-0.00000039,-0.00000011,0.00000011,0.0000
 0062,0.00000034,-0.00000041,0.00000066,0.00000055,0.00000147,-0.000000
 36,-0.00000018,-0.00000006,0.00000001,-0.00000013,-0.00000120,-0.00000
 022,-0.00000005,0.00000007,0.00000007,0.00000004,0.00000017,-0.0000000
 6,-0.00000007,0.00000007,-0.00000005,-0.00000002,0.00000003,0.,0.00000
 005,0.00000004,0.00000003,-0.00000003,0.00000002,0.,-0.00000006,-0.000
 00004,0.00000003,-0.00000001,-0.00000003,0.00000004,0.,0.,-0.00000008,
 0.00000005,0.00000025,-0.00000027,-0.00000010,-0.00000018,-0.00000005,
 -0.00000006,-0.00000011,0.00000010,0.00000002,0.00000010,0.,-0.0000000
 9,0.00000007,0.00000007,0.,-0.00000007,-0.00000009,-0.00000006,-0.0000
 0057,-0.00000004,-0.00000006,0.00000027,0.00000003,0.00000020,0.000000
 23,-0.00000003,-0.00000012,0.00000026,0.00000002,-0.00000007,0.0000000
 6,0.00000005,0.00000011,0.00000022,-0.00000005,0.00000006,0.00000002,-
 0.00000001,-0.00000011,-0.00000168,-0.00000007,-0.00000012,-0.00000008
 ,0.00000008,0.00000015,-0.00000008,-0.00000004,-0.00000018,0.00000199,
 -0.00000027,0.00000023,-0.00000375,-0.00000005,-0.00000018,-0.00000418
 ,0.00000048,-0.00000060,0.00000227,-0.00000089,0.00000024,0.00000222,0
 .00000076,0.00000037,0.00000215,0.00000018,-0.00000005,0.00000140,0.00
 000132,-0.00000032,0.00000051,-0.00000088,0.00000019,-0.00000079,-0.00
 000119,0.00000036,-0.00000010,-0.00000062,0.00000031,0.00000134,0.0000
 0103,-0.00000065,0.00000167,0.00000159,-0.00000051,0.00000058,-0.00000
 071,0.00000015,0.00000297,-0.00000092,0.00000028,-0.00000041,-0.000000
 22,-0.00000010,-0.00000086,-0.00000048,0.00000046,0.00000049,0.0000025
 0,-0.00000045,-0.00000009,0.00000002,-0.00000008,-0.00000065,-0.000002
 25,0.00000110,-0.00000086,-0.00000028,0.00000060,0.00000012,0.00000077
 ,-0.00000132,0.00000011,0.,0.00000006,-0.00000004,0.00000033,-0.000000
 03,-0.00000015,-0.00000012,0.,0.00000003,-0.00000006,-0.00000010,-0.00
 000015,-0.00000002,0.00000006,0.00000026,0.,0.00000006,-0.00000016,-0.
 00000007,-0.00000014,-0.00000003,0.00000005,-0.00000005,0.00000013,0.,
 0.00000001,0.00000013,0.00000007,0.00000011,0.00000006,0.,-0.00000013,
 -0.00000010,0.00000002,0.00000005,-0.00000719,0.00000385,-0.00000186,-
 0.00000635,-0.00000251,0.00000027,0.00000490,-0.00000068,0.00000077,0.
 00000382,-0.00000082,0.00000095,0.00000399,0.00000015,0.00000071,-0.00
 000458,0.,-0.00000068,0.00000055,0.00000029,0.00000022,0.00000195,0.00
 000062,-0.00000090,-0.00000791,0.00000144,0.00000014,0.00000043,-0.000
 00025,-0.00000059,0.00000082,-0.00000051,0.00000106,0.00000041,-0.0000
 0006,0.00000038,-0.00000042,0.00000010,-0.00000055,-0.00000056,-0.0000
 0044,0.00000085,-0.00000009,0.,-0.00000042,0.00000513,0.00002055,0.000
 01358,0.00001708,-0.00001121,-0.00001156,-0.00004780,-0.00001493,-0.00
 002300,-0.00003845,-0.00000968,-0.00000213,0.00002312,-0.00000466,0.00
 000220,0.00005307,-0.00001987,0.00004143,0.00000187,0.00000706,0.00000
 647,0.00001795,0.00000200,0.00000543,-0.00000551,0.00002026,0.00002310
 ,0.00001032,-0.00005424,0.00000932,0.00001157,0.00058779,-0.00062107,0
 .00000059,-0.00000124,-0.00000004,-0.00008306,-0.00013612,0.00018383,-
 0.00001123,0.00001539,0.00001903,-0.00003036,-0.00000055,0.00005571,0.
 00010641,0.00037232,-0.00046908,-0.00001745,0.00001926,-0.00000296,0.0
 0001615,0.00003277,-0.00000186,-0.00000362,-0.00002093,-0.00000445,-0.
 00000206,0.00000195,-0.00000023,0.00000231,-0.00000231,0.00000193,-0.0
 0057233,-0.00170017,0.00015177,-0.00133823,0.00033755,-0.00050299,0.00
 003725,-0.00111327,0.00926958,0.00078894,-0.00019538,0.00034260,-0.001
 19592,-0.00014077,0.00017816,0.09293661,-0.00480250,-0.29646236,0.0035
 8114,0.00228046,-0.00980421,0.00454991,-0.00165941,-0.01335815,-0.0988
 0814,0.00618865,0.31095982\\0.00000312,-0.00000168,0.00000105,0.000004
 70,-0.00000608,-0.00000957,-0.00000562,0.00000335,0.00000023,0.0000037
 2,-0.00000256,-0.00000188,-0.00000723,0.00000233,0.00000347,0.00000075
 ,0.00000203,0.00000055,-0.00000061,0.00000217,0.00000194,-0.00000294,0
 .00000180,0.00000274,-0.00000126,-0.00000651,-0.00000603,-0.00000056,0
 .00000137,0.00000399,-0.00000667,0.00000164,0.00000500,0.00000298,0.00
 000070,-0.00000089,0.00000153,0.00000016,-0.00000253,-0.00000070,0.000
 00057,0.00000240,0.00000266,0.00000484,0.00000278,-0.00000138,0.000001
 82,0.00000061,0.00000356,-0.00000517,-0.00000319,-0.00000666,-0.000001
 53,-0.00000313,0.00000087,-0.00000145,-0.00000003,0.00000354,0.0000021
 6,0.00000298,-0.00000006,0.00000266,0.00000105,0.00000039,-0.00000075,
 -0.00000085,0.00000546,0.00000098,0.00000282,0.00000143,-0.00000436,-0
 .00000564,-0.00000288,0.00000063,0.00000137,0.00000544,0.00000389,0.00
 000461,-0.00000177,-0.00000036,-0.00000068,0.00000484,0.00000114,-0.00
 000370,-0.00000345,0.00000185,0.00000331,-0.00000585,-0.00000393,-0.00
 000123,0.00000048,-0.00000060,-0.00000021,0.00000117,-0.00000023,-0.00
 000077,-0.00000170,-0.00000010,0.00000413,0.00000625,-0.00000473,0.000
 00049,0.00000060,-0.00000754,-0.00000081,-0.00000521,0.00000470,-0.000
 00093,-0.00000085,0.00000652,-0.00000226,-0.00000138,0.00000193,0.0000
 0062,-0.00000060,-0.00000235,-0.00000021,-0.00000392,0.00000368,-0.000
 00183,-0.00000271,-0.00000348,0.00000625,0.00001174,0.00000852,-0.0000
 0523,-0.00000236,0.00000327,-0.00000556,-0.00000240,-0.00001442,0.0000
 0265,0.00000099,0.00000296,0.00000029,-0.00000133,-0.00000048,0.000002
 43,-0.00000072,-0.00000135,0.00000042,0.00000545,-0.00000105,0.0000002
 4,-0.00000454,0.00000023,-0.00000288,-0.00000252,0.00000294,-0.0000004
 3,0.00000924,0.00000394,-0.00000177,-0.00000423,-0.00000589,0.00000260
 ,-0.00000822,-0.00000161,-0.00000107,0.00000417,-0.00000034,0.00000394
 ,0.00000177,0.00000072,0.00000220,0.00000073,0.00000154,0.00000129,0.0
 0000006,-0.00000134,-0.00000182,-0.00000129,0.00000044,0.00000111,-0.0
 0000216,0.00000014,-0.00000103,0.00000655,-0.00000405,-0.00000090,-0.0
 0000065,0.00000230,0.00000023,0.00000314,0.00000102,-0.00000024,-0.000
 00263,-0.00000004,-0.00000072,-0.00000104,0.00000004,0.00000128,-0.000
 00120,0.00000329,0.00000111,-0.00000385,-0.00000760,-0.00000125,-0.000
 00453,0.00000403,-0.00000217,0.00000122,-0.00000290,-0.00000405,0.0000
 0758,0.00000783,-0.00000169,-0.00000124,-0.00000360,0.00000134,-0.0000
 0759,0.00000395,0.00001626,0.00000587,0.00000213,-0.00001268,0.0000022
 7,0.00000088,0.00000446,-0.00000522,-0.00000217,-0.00000077,0.00001191
 ,0.00000242,-0.00000410,-0.00000370,-0.00000036,-0.00000201,-0.0000026
 7,-0.00000047,0.00000217,0.00000112,0.00000070,0.00000014,-0.00000002,
 -0.00000054,0.00000087,0.00000089,-0.00000075,0.00000074,-0.00000207,-
 0.00000516,-0.00000530,0.00000346,-0.00000513,0.00000208,0.00000360,-0
 .00000113,0.00000420,-0.00000216,0.00000316,0.00000178,-0.00000294,0.0
 0000379,-0.00000069,0.00000470,0.00000060,0.00000168,-0.00000260,0.000
 00370,-0.00000029,-0.00000392,0.00000375,0.00000046,0.00000631,-0.0000
 0208,-0.00000280,-0.00000823,0.00000250,-0.00000009,0.00000673,-0.0000
 0017,0.00000165,-0.00000113,-0.00000084,-0.00000018,-0.00000352,0.0000
 0310,-0.00000010,0.00000534,-0.00000107,-0.00000027,0.00000262,-0.0000
 0340,-0.00000201,-0.00000642,-0.00000183,-0.00000009,-0.00000095,0.000
 00014,0.00000003,0.00000141,-0.00000328,-0.00000050,0.00000050,-0.0000
 0159,-0.00000191,-0.00000165,-0.00000290,-0.00000009,-0.00000033,0.000
 00251,0.00000086,-0.00000782,0.00000281,-0.00000272,0.00000387,0.00000
 241,0.00000450,0.00000650,-0.00000075,-0.00000413,-0.00000183,-0.00000
 162,-0.00000204,0.00000272,-0.00000035,0.00000319,-0.00000389,-0.00000
 405,0.00000285,0.00000198,0.00000328,0.00000359,0.00000034,0.00000131,
 -0.00000164,-0.00000071,-0.00000157,-0.00000344\\\@


 SEE YOU NOW,
 YOUR BAIT OF FALSEHOOD TAKES THIS CARP OF TRUTH.
 AND THUS DO WE OF WISDOM AND OF REACH...
 BY INDIRECTIONS FIND DIRECTIONS OUT.    -- HAMLET, II, 1
 Job cpu time:       1 days 14 hours 31 minutes 38.0 seconds.
 Elapsed time:       0 days  9 hours 39 minutes 16.8 seconds.
 File lengths (MBytes):  RWF=  18050 Int=      0 D2E=      0 Chk=    105 Scr=      1
 Normal termination of Gaussian 16 at Wed Mar 16 19:53:13 2022.
